# vtk DataFile Version 2.0
sampleSurface
ASCII
DATASET POLYDATA
POINTS 29622 float
-0.000626264 0.02 0 -0.000711655 0.02 0.0141674 0.0147896 0.02 0 -0.0159899 0.02
0 -0.00116012 0.02 0.0180502 -0.0155282 0.02 0.0128408 0.0125134 0.02 0.0160665
-0.00153405 0.02 0.0212859 -0.0157761 0.02 0.0167357 0.0119059 0.02 0.0199308 -0.0159829
0.02 0.0199816 0.0113994 0.02 0.0231511 0.0307112 0.02 0 -0.03158 0.02
0 -0.0313963 0.02 0.0122895 0.0322044 0.02 0.0100037 -0.0314347 0.02 0.0161643
-0.0314668 0.02 0.0193933 0.035056 0.02 0.01626 0.0338862 0.02 0.0221196 0.0329105
0.02 0.0270048 0.046561 0.02 0 -0.04742 0.02 0 0.0479306 0.02
0.0101734 -0.0474942 0.02 0.0127772 -0.0473299 0.02 0.0165239 -0.0471929 0.02 0.0196463
0.00924481 0.02 0.0516915 0.0494094 0.02 0.0183313 -0.0134021 0.02 0.0516237 0.0480848
0.02 0.0247778 0.00925064 0.02 0.0544086 0.0469797 0.02 0.0301574 -0.0134578 0.02
0.0549233 -0.0260141 0.02 0.0516224 0.00925771 0.02 0.0576651 0.0285421 0.02 0.0517212
-0.0335024 0.02 0.0503979 -0.0262833 0.02 0.0549314 0.0285517 0.02 0.0551565 -0.0338111
0.02 0.0524296 0.0624323 0.02 0 -0.0635513 0.02 0 0.0631854 0.02
0.0123018 -0.0341816 0.02 0.0548694 -0.0631422 0.02 0.0145995 -0.0627523 0.02 0.0179257
-0.0624271 0.02 0.0206975 0.0285632 0.02 0.0592835 -0.00839835 0.02 0.0658926 0.063721
0.02 0.0227067 -0.0482842 0.02 0.0478235 0.00967915 0.02 0.067425 0.0458271 0.02
0.0517467 -0.0226337 0.02 0.0654011 0.0630239 0.02 0.028683 -0.0486978 0.02 0.0509764
0.062443 0.02 0.0336742 0.0458203 0.02 0.055416 0.026845 0.02 0.0680903 -0.0491941
0.02 0.054759 -0.035021 0.02 0.0649161 0.0458122 0.02 0.0598276 -0.0191597 0.02
0.0732754 -0.00311666 0.02 0.077051 -0.00255422 0.02 0.0782358 0.0784938 0.02 0
0.00194428 0.02 0.0786012 -0.0636358 0.02 0.0466853 -0.0173222 0.02 0.0775525 -0.0765921
0.02 0.0224313 -0.00232999 0.02 0.0798271 -0.0772697 0.02 0.0204922 0.0788037 0.02
0.0139438 -0.0780823 0.02 0.0181648 -0.0802538 0.02 0 0.0124228 0.02 0.0794745
0.0621102 0.02 0.0517893 -0.0640599 0.02 0.0501172 0.044288 0.02 0.0683138 -0.0503008
0.02 0.0642321 0.07854 0.02 0.0258466 0.0621029 0.02 0.0552551 -0.0333233 0.02
0.0767836 -0.0333103 0.02 0.0768858 -0.0334615 0.02 0.0768769 -0.0332875 0.02 0.077004
0.0784374 0.02 0.0301441 0.0269021 0.02 0.0796185 -0.0645673 0.02 0.0542281 -0.0167508
0.02 0.0829226 0.0783517 0.02 0.0337218 0.0620941 0.02 0.059424 0.0435428 0.02
0.078852 -0.0787026 0.02 0.044501 -0.0656735 0.02 0.063512 0.0609156 0.02 0.0687538
-0.0521327 0.02 0.0759212 -0.0794839 0.02 0.0479436 0.0779046 0.02 0.0518514 0.0948037
0.02 0 -0.0158667 0.02 0.0942564 -0.000383487 0.02 0.0955942 -0.0804181 0.02
0.0520697 0.0951817 0.02 0.0152146 0.0779126 0.02 0.0570228 -0.0980541 0.02 0
0.0937075 0.02 0.0295273 0.0934653 0.02 0.0318318 0.0932639 0.02 0.033747 -0.0307605
0.02 0.0947054 0.0142616 0.02 0.0986948 0.0597441 0.02 0.0801689 -0.0909562 0.02
0.0419181 -0.0668854 0.02 0.075392 -0.0998412 0.02 0.016911 -0.0922551 0.02 0.0437855
0.0168196 0.02 0.100996 0.0269517 0.02 0.0992279 0.0450617 0.02 0.09251 0.07753
0.02 0.0682577 -0.0817634 0.02 0.0636401 -0.0938102 0.02 0.0460256 -0.0998281 0.02
0.0335224 0.0926972 0.02 0.0518158 -0.0507033 0.02 0.0933516 -0.00118864 0.02 0.107376
-0.0198713 0.02 0.105984 0.0930811 0.02 0.0549867 0.0322709 0.02 0.103383 -0.0471823
0.02 0.0993111 0.0611389 0.02 0.0920601 0.0757902 0.02 0.0815793 0.111368 0.02
0 -0.0819878 0.02 0.0758654 0.106626 0.02 0.033755 0.111677 0.02 0.015575
-0.0512522 0.02 0.100983 -0.0693622 0.02 0.0901735 0.0443505 0.02 0.105441 -0.114433
0.02 0 0.0941685 0.02 0.0681304 -0.098111 0.02 0.0626988 -0.115406 0.02
0.0159041 0.106639 0.02 0.0514943 0.077111 0.02 0.092559 0.062589 0.02 0.103095
-0.116732 0.02 0.0309014 -0.11361 0.02 0.0456422 -0.0830293 0.02 0.0904377 0.0620976
0.02 0.106128 0.0917701 0.02 0.0824748 -0.0692362 0.02 0.103597 -0.0157512 0.02
0.123653 -0.0981586 0.02 0.0769568 -0.0286459 0.02 0.121586 0.0616911 0.02 0.108642
-0.00135098 0.02 0.126852 0.127678 0.02 0 0.127681 0.02 0.0157497 0.0779179
0.02 0.103318 0.110542 0.02 0.067339 -0.129878 0.02 0 0.0135636 0.02
0.129698 -0.115046 0.02 0.0624473 -0.13025 0.02 0.0155149 0.0926218 0.02 0.0929193
0.127607 0.02 0.0317518 -0.0512544 0.02 0.12196 0.0769845 0.02 0.107826 -0.0979274
0.02 0.0912246 -0.130467 0.02 0.0307187 -0.0830669 0.02 0.105459 0.108343 0.02
0.0804684 0.076205 0.02 0.111591 0.033156 0.02 0.131508 0.0291973 0.02 0.132459
0.126891 0.02 0.0510967 -0.129316 0.02 0.0457947 -0.114159 0.02 0.077738 -0.0672405
0.02 0.121204 0.0915473 0.02 0.105188 0.0335813 0.02 0.13607 0.125156 0.02
0.064945 -0.12863 0.02 0.0610193 0.0903924 0.02 0.110214 0.108416 0.02 0.0927111
-0.0167998 0.02 0.141976 -0.00122092 0.02 0.143552 0.0443986 0.02 0.136994 0.144241
0.02 0 0.014292 0.02 0.143703 -0.0976212 0.02 0.106426 -0.033047 0.02
0.140708 -0.144999 0.02 0 0.144192 0.02 0.0157437 0.0894279 0.02 0.114412
-0.145097 0.02 0.0153857 -0.0822205 0.02 0.121736 0.123616 0.02 0.079756 -0.114272
0.02 0.0926863 0.14381 0.02 0.0316597 -0.0499473 0.02 0.138659 -0.14504 0.02
0.0306779 0.14253 0.02 0.0481078 0.109841 0.02 0.102812 -0.14452 0.02 0.0459283
-0.130173 0.02 0.0778439 -0.0659231 0.02 0.138019 0.140391 0.02 0.0629309 0.0619994
0.02 0.14141 0.1236 0.02 0.0935311 -0.11262 0.02 0.107019 -0.0971985 0.02
0.122314 -0.144037 0.02 0.0612498 0.0610269 0.02 0.144909 -0.00109627 0.02 0.157281
0.112365 0.02 0.110111 -0.0169303 0.02 0.156556 0.0146763 0.02 0.15714 0.0303439
0.02 0.155927 -0.0330245 0.02 0.155701 0.138275 0.02 0.0797507 -0.129523 0.02
0.0935127 0.111013 0.02 0.115179 -0.160051 0.02 0 -0.0813649 0.02 0.138082
0.0598586 0.02 0.149119 -0.160049 0.02 0.0153647 0.161091 0.02 0 0.161419
0.02 0.0155742 0.109887 0.02 0.119403 -0.0491994 0.02 0.154789 0.124483 0.02
0.104644 0.0457774 0.02 0.156097 -0.143679 0.02 0.076667 -0.159941 0.02 0.0307111
0.0761826 0.02 0.145158 0.161411 0.02 0.0311713 -0.159648 0.02 0.0460564 -0.112328
0.02 0.122769 0.159875 0.02 0.0467547 -0.0650648 0.02 0.154354 0.0747878 0.02
0.150266 0.155991 0.02 0.0621477 -0.0966568 0.02 0.138348 0.137954 0.02 0.0972345
-0.12931 0.02 0.108561 0.125571 0.02 0.113477 -0.159317 0.02 0.0614462 0.124052
0.02 0.118682 0.152113 0.02 0.0801569 -0.000945772 0.02 0.171985 -0.144929 0.02
0.0933401 -0.0168136 0.02 0.171642 0.0148827 0.02 0.171926 0.0731134 0.02 0.156401
0.0602399 0.02 0.161942 0.122788 0.02 0.123016 -0.0806767 0.02 0.154269 0.0306552
0.02 0.171538 -0.0327603 0.02 0.171154 -0.175135 0.02 0 -0.175104 0.02
0.0153837 0.139708 0.02 0.10779 -0.159018 0.02 0.0769012 -0.127584 0.02 0.123127
0.177422 0.02 0 -0.0486967 0.02 0.170677 -0.175002 0.02 0.030773 -0.111953
0.02 0.138634 0.178245 0.02 0.0153881 0.0973805 0.02 0.151095 -0.144169 0.02
0.108886 -0.17481 0.02 0.0461761 0.0450262 0.02 0.175324 0.178976 0.02 0.0308584
0.1534 0.02 0.0975439 -0.0961491 0.02 0.154362 0.0752222 0.02 0.165707 -0.0644954
0.02 0.170392 0.171563 0.02 0.0625428 0.140548 0.02 0.117763 0.164921 0.02
0.0802817 0.177632 0.02 0.0464933 -0.15876 0.02 0.0924223 0.0956442 0.02 0.157102
-0.174576 0.02 0.0616128 0.138848 0.02 0.123066 -0.000797289 0.02 0.187164 0.137431
0.02 0.127484 -0.0166397 0.02 0.186993 0.015021 0.02 0.187152 0.0601932 0.02
0.178304 -0.0801553 0.02 0.170288 -0.127292 0.02 0.138895 0.0935604 0.02 0.164311
0.0308071 0.02 0.187002 -0.0324987 0.02 0.186723 0.109749 0.02 0.154715 -0.14375
0.02 0.124002 0.155561 0.02 0.108915 -0.190287 0.02 0 -0.111575 0.02
0.154522 -0.174341 0.02 0.0770964 -0.190252 0.02 0.0154145 0.192081 0.02 0
-0.0483322 0.02 0.186456 -0.190168 0.02 0.0308401 -0.159337 0.02 0.108678 0.192798
0.02 0.015142 0.107888 0.02 0.160863 0.0757736 0.02 0.179351 0.167558 0.02
0.0992129 -0.0957207 0.02 0.170305 -0.190031 0.02 0.046283 0.193359 0.02 0.0304075
0.186572 0.02 0.0617725 0.0451314 0.02 0.191407 0.154026 0.02 0.122375 -0.0640896
0.02 0.186272 -0.174121 0.02 0.0926298 0.191952 0.02 0.0458818 0.182046 0.02
0.0790949 0.105655 0.02 0.168241 0.152267 0.02 0.127652 -0.142678 0.02 0.139122
-0.18986 0.02 0.0617532 -0.126999 0.02 0.154697 0.150801 0.02 0.132046 0.123413
0.02 0.158982 -0.158909 0.02 0.124147 0.0908508 0.02 0.18095 0.0605345 0.02
0.193218 -0.0797642 0.02 0.186185 -0.000663263 0.02 0.202576 0.0151311 0.02 0.202574
-0.0164706 0.02 0.202486 0.170746 0.02 0.110267 -0.111233 0.02 0.170387 -0.189679
0.02 0.0772585 0.0309089 0.02 0.2025 -0.0322747 0.02 0.202338 0.121458 0.02
0.165139 -0.17406 0.02 0.108309 0.205076 0.02 0 -0.205512 0.02 0
0.205099 0.02 0.0148235 -0.205481 0.02 0.0154458 0.204553 0.02 0.0297533 0.202511
0.02 0.0448143 0.183105 0.02 0.0976458 0.198739 0.02 0.0600511 -0.205415 0.02
0.0309025 -0.048054 0.02 0.202184 -0.0953731 0.02 0.186175 0.0756224 0.02 0.195474
0.119113 0.02 0.172531 0.105845 0.02 0.18174 -0.14244 0.02 0.154866 -0.205314
0.02 0.0463754 -0.1581 0.02 0.139316 -0.189501 0.02 0.0928015 0.172722 0.02
0.121629 0.19693 0.02 0.0767081 0.0454421 0.02 0.206433 -0.0637857 0.02 0.202068
-0.126725 0.02 0.170499 -0.174089 0.02 0.124038 -0.205187 0.02 0.0618705 0.0911397
0.02 0.195716 0.186009 0.02 0.110685 -0.11094 0.02 0.186215 0.0608037 0.02
0.208112 -0.0794642 0.02 0.202003 0.215224 0.02 0.0290984 0.216771 0.02 0.014522
0.213014 0.02 0.0437438 0.217464 0.02 0 -0.000546128 0.02 0.218103 0.175966
0.02 0.129296 0.210501 0.02 0.058189 -0.189708 0.02 0.108537 0.0152247 0.02
0.218099 -0.0163223 0.02 0.218056 -0.205048 0.02 0.0773926 0.121368 0.02 0.182669
0.199005 0.02 0.094086 0.0309877 0.02 0.218051 0.174226 0.02 0.134816 -0.0320902
0.02 0.217975 0.145063 0.02 0.165918 -0.220807 0.02 0 -0.157901 0.02
0.155021 -0.220782 0.02 0.0154737 0.172775 0.02 0.139418 -0.142217 0.02 0.170619
-0.173549 0.02 0.139484 -0.220731 0.02 0.0309567 -0.0478372 0.02 0.217886 -0.0950965
0.02 0.201986 0.106373 0.02 0.196425 0.0758406 0.02 0.210351 0.210947 0.02
0.0742626 0.143041 0.02 0.172076 0.188169 0.02 0.123332 -0.204906 0.02 0.0929435
-0.126482 0.02 0.186284 -0.220655 0.02 0.0464532 0.0457602 0.02 0.221204 -0.18917
[...]
POINT_DATA 29622
FIELD attributes 1
U 3 29622 float
20 0 0 24.0451 1.6188 -0.287152 20 0 0 20 0
0 15.4912 1.86512 -0.209965 26.0604 1.03808 -0.184873 21.6528 2.37658 -0.522158
0 0 0 21.5171 1.19928 -0.10382 8.99208 3.14938 -0.321344 0
0 0 0 0 0 20 0 0 20 0
0 26.5484 0.605002 -0.490368 24.0235 2.59936 -0.768233 23.9427 0.655036 -0.488946
0 0 0 16.6135 3.80028 -0.702734 2.86736 4.48726 -0.356046 0
0 0 20 0 0 20 0 0 22.2891 2.94412
-0.705148 26.7126 0.441516 -1.33704 24.8305 0.428065 -1.31034 0 0 0
0 0 0 9.76728 4.01549 -0.962817 0 0 0 -2.31612
3.46005 -0.855863 17.1792 0.00976235 0.160994 0 0 0 13.88 -0.277582
0.250103 0 0 0 19.8928 0.133507 -0.115877 0 0 0
0 0 0 13.8369 -0.376592 1.03244 17.3246 -0.185297 0.0383569 15.0091
-0.537186 2.16395 20 0 0 20 0 0 19.0899 3.24217
-0.323523 18.3596 -0.396434 2.17318 25.3649 0.473778 -2.52077 23.3588 0.3874 -2.27446
0 0 0 19.9287 -0.0527661 -0.336308 21.2712 -0.720808 0.17286 4.11743
3.39549 -0.395949 0 0 0 21.3911 -0.375856 -0.196035 0 0
0 20.4697 -0.695195 1.00916 -5.78307 1.46184 -0.280439 15.1943 -0.321743 2.0727
0 0 0 17.5769 -1.16775 -0.0861491 20.9225 -0.580964 -0.516658 18.8839
-0.0591473 1.93565 19.3593 -0.260927 1.71439 20.168 -1.05883 -0.41188 20.3213 -0.873826
0.375785 20.945 -1.16301 -0.149707 20.9175 -1.22163 -0.168545 20 0 0
20.8881 -1.25592 -0.227128 0 0 0 20.2334 -1.04175 0.0465533 0
0 0 19.0208 -1.11678 -0.167966 18.4718 0.414628 -2.18053 15.495 2.82047
0.38991 18.6735 0.611868 -2.77416 20 0 0 20.8447 -1.26232 -0.387294
0 0 0 16.2752 -0.229111 2.63733 20.8296 -1.591 -0.568413 18.3365
0.0970072 1.63277 1.38904 1.79452 0.804283 18.0607 -1.76611 0.0983483 19.1918 -0.445102
0.377455 19.1903 -0.447046 0.365595 19.1813 -0.441476 0.368292 19.0688 -0.444836 0.363892
-5.4354 -0.860776 0.891029 20.3528 -1.43639 -0.823297 18.6253 0.0826239 2.01541 14.2117
-0.763381 0.0330446 0 0 0 20.7789 -1.69686 -0.0400952 20.3322 -2.26835
-0.848578 0 0 0 17.6365 0.249817 1.67359 21.4073 -2.05813 -0.198574
18.0678 0.276278 0.7405 16.2476 -0.0254292 4.04894 0 0 0 20
0 0 3.38062 -0.274395 -0.033757 3.03269 -0.176715 -0.22963 18.0898 0.24352
3.15835 12.8475 1.24934 0.911532 19.2981 -1.50821 0.244701 20 0 0
0.354579 -0.939958 1.16724 -3.66283 -2.68935 1.04363 0 0 0 3.73431
-0.103683 0.0601406 2.89962 0.0754062 -0.58083 20.6497 -2.63153 -0.430885 0 0
0 17.3608 0.468706 1.23285 15.5581 0.7484 -2.08523 13.0394 0.223983 4.69151
2.89362 0.183062 -0.631547 6.03146 0.422332 -2.18511 18.6906 -1.82854 -2.67151 21.7389
-1.70942 -0.0339709 16.9705 0.371837 2.31857 14.2108 0.493599 3.77681 0 0
0 0 0 0 7.98675 0.29801 0.34118 3.03469 0.104481 -0.233223
3.08433 0.147812 0.00560956 18.581 -1.37303 -0.0404941 2.55021 0.198812 -1.41269 2.95298
0.262586 0.103307 18.5717 -1.94924 -1.14147 20.3137 -2.27031 -0.269223 20 0
0 16.8293 0.45843 1.8434 0 0 0 12.3951 -0.123802 1.20972
7.61323 0.781297 0.440949 16.7275 0.98408 0.885916 0 0 0 20
0 0 21.2763 -1.54798 -0.395854 16.1348 0.466145 2.91 15.1098 0.602948
-0.559729 0 0 0 16.9351 -1.57702 -0.013991 13.8447 0.562071 -0.100825
13.9411 0.70872 0.371136 14.4481 0.648085 2.10644 16.4829 0.624771 1.66308 10.1981
2.0289 1.35578 19.4249 -1.95715 -0.491187 15.8722 1.35741 1.20881 3.12254 0.292801
0.229188 16.3183 0.468973 2.06057 3.34856 0.40991 0.334848 0 0 0
3.08352 0.217255 0.160652 20 0 0 12.3146 -0.463635 1.31464 13.1656
1.22881 1.34595 20.3782 -1.63482 -1.18242 20 0 0 2.77093 0.210344
0.119267 15.6481 0.469517 2.29027 15.3866 0.500943 -0.0920046 14.9925 -1.3751 0.32182
5.60554 -2.8421 0.160904 15.2176 2.52862 2.46286 10.3839 2.94107 1.95764 16.3015
0.526022 1.77527 14.829 0.52898 0.399508 16.1258 0.777219 1.74134 18.542 -1.9095
-0.930751 0 0 0 0 0 0 2.03426 0.101603 -0.126626
13.0384 -2.79025 -1.74753 15.0295 0.48554 1.10324 16.048 0.426639 1.82087 15.8519
1.18513 2.01118 11.9537 1.11011 1.89466 2.88393 0.174662 0.829616 19.5506 -1.79675
-1.87055 15.6897 0.410266 1.41298 10.7636 2.96754 2.2339 13.5627 -1.49797 0.181536
16.7322 1.5399 3.10014 16.4188 1.33782 2.8408 0 0 0 20
0 0 15.6096 0.995768 3.05506 16.2609 0.564799 1.73384 16.5483 1.67354
3.52359 20 0 0 12.4484 -0.347946 1.17766 0 0 0
15.6385 0.414985 0.101665 16.1657 0.7679 1.99593 17.3887 -1.87156 -1.26608 16.2341
0.419559 1.65314 6.35378 -2.86387 -0.0131654 16.3423 1.2922 3.06334 15.4563 0.424934
0.407558 12.2335 -2.95141 -1.92206 11.0119 -0.108641 1.47483 15.6075 0.394766 0.827826
16.0734 0.369367 1.4443 16.3886 0.83703 2.37792 18.7736 -1.72936 -2.18847 0
0 0 12.2497 -1.4528 0.0476955 16.3574 0.420605 1.63644 16.3536 0.535619
1.81563 15.9358 0.352752 1.10796 13.7679 1.07756 3.56823 16.9576 1.03557 2.78675
11.4733 1.22256 2.12337 16.9692 1.02861 2.73311 16.7183 0.953582 3.06682 16.28
0.696539 3.65747 16.8193 0.957893 2.77555 16.2088 -1.68665 -1.3829 16.3076 0.348887
1.44142 10.1854 2.06806 1.99224 20 0 0 16.4588 0.625846 2.12716
15.3662 0.849245 4.02946 15.9539 0.342215 0.157283 20 0 0 12.9715
-0.170871 0.947892 0 0 0 16.6769 0.781956 2.61248 10.6372 -0.298364
1.27495 16.2605 0.613712 4.09814 16.2157 0.319953 1.21027 15.8878 0.345888 0.386988
0 0 0 7.95156 -2.48536 -0.162055 15.9972 0.32245 0.656079 16.4958
0.400522 1.67033 12.8715 -2.58093 -1.92159 16.6677 0.610174 2.33166 14.0783 1.28847
3.70814 18.2736 -1.54724 -2.25421 16.5661 0.457819 1.89055 11.2733 -1.36771 0.0221884
16.4748 0.333216 1.46625 11.3923 0.826256 1.92252 16.1945 0.29654 0.871065 9.72325
1.3262 1.84974 15.3096 -1.56389 -1.38816 17.0833 0.720298 2.87096 16.4299 0.294749
1.25384 17.0643 0.705166 2.76234 17.0268 0.741434 3.03321 16.1266 1.00841 4.13542
16.6537 0.73753 3.94462 0 0 0 16.7138 0.478337 2.10926 16.9776
0.734605 3.27681 16.9707 0.660468 2.64748 20 0 0 16.2316 0.285304
0.164514 10.4096 -0.559204 1.04834 16.3915 0.273136 1.00704 16.6196 0.316715 1.50877
20 0 0 16.8932 0.562578 2.45979 16.2108 0.288466 0.348487 16.673
0.356115 1.70888 13.5591 -0.0759306 0.736408 0 0 0 16.596 0.276179
1.30362 16.3053 0.269314 0.548718 17.0459 0.722386 3.45221 9.57401 -2.13544 -0.354666
10.6496 -1.52822 -0.091621 16.7764 0.37413 1.90295 16.6653 0.80514 3.90377 16.8855
0.459434 2.25297 17.8878 -1.43063 -2.24988 11.0396 0.221955 1.80208 14.6951 -1.62962
-1.30773 13.7344 -2.18654 -1.98062 16.5643 0.25329 1.08979 14.3355 1.46011 3.80789
16.4375 0.250896 0.722767 8.83982 0.349734 1.81338 17.1776 0.522925 2.75014 0
0 0 17.1645 0.503898 2.64414 17.1578 0.552952 2.88781 17.1845 0.75943
3.52584 16.9142 0.374152 2.0641 16.7767 0.285943 1.5434 16.4455 1.08939 4.07746
17.1497 0.580701 3.04886 17.1201 0.468993 2.52308 0 0 0 16.7404
0.258654 1.35315 10.0627 -0.967013 0.856964 20 0 0 16.8535 0.301474
1.72543 16.5797 0.233168 0.853942 16.4795 0.239699 0.154203 20 0 0
17.0827 0.412766 2.36152 16.4708 0.243394 0.309002 16.7198 0.234201 1.15299 14.0754
-0.0373215 0.572911 14.5018 1.60152 3.9081 17.1903 0.805842 3.63406 10.3163 -1.69064
-0.0358831 16.96 0.305484 1.88691 16.5524 0.227216 0.469085 10.7009 -1.90319 -0.480676
17.746 -1.42087 -2.24422 17.2061 0.595704 3.19315 10.3021 -0.367731 1.69372 17.0746
0.352672 2.18785 16.7167 0.217074 0.948819 14.2802 -1.95907 -2.01915 14.5397 -1.81029
-1.29575 16.5023 1.23302 4.18141 7.91032 -0.217689 1.73446 16.8798 0.237235 1.39451
16.6508 0.213452 0.614263 16.9352 0.247736 1.56604 0 0 0 0
0 0 16.8549 0.219072 1.21135 17.0868 0.867188 3.78441 17.2849 0.645302
3.32719 17.09 0.299183 2.0212 17.2912 0.409211 2.63193 17.2934 0.437735 2.76174
17.276 0.384824 2.51983 9.82573 -1.12144 0.823436 17.0188 0.253569 1.72637 16.7579
0.19984 0.73468 17.3006 0.464518 2.90093 17.2516 0.353757 2.40056 14.7103 1.59986
4.10211 16.847 0.201771 1.02273 20 0 0 20 0 0
14.513 -0.0278373 0.461877 16.6961 0.203495 0.139451 11.5237 -1.76228 -0.538674 14.7394
-1.83433 -2.02567 10.3748 -1.86478 -0.13984 17.8627 -1.46101 -2.28496 16.689 0.208094
0.272406 17.2332 0.316582 2.26406 17.1224 0.253495 1.86378 17.3333 0.702573 3.43797
16.5421 1.21834 4.36905 17.0191 0.94014 3.94343 17.0206 0.208312 1.42355 16.7611
0.194067 0.407199 16.9813 0.201555 1.25899 16.8679 0.187241 0.830722 10.5916 -0.474803
1.54094 14.8834 -1.82902 -1.39945 17.3424 0.482777 3.01946 17.2298 0.278786 2.11918
17.0844 0.213853 1.5794 16.9681 0.189348 1.0855 16.8389 0.183211 0.532328 17.3271
0.77174 3.57381 9.80475 -0.976213 0.671169 17.1671 0.216662 1.71822 17.3903 0.517993
3.12585 17.2412 0.243863 1.97485 12.3288 -1.65727 -0.547745 14.8931 -0.0496783 0.387171
15.2299 -1.70958 -1.95192 20 0 0 17.4081 0.325431 2.538 10.24
0.36343 1.83886 17.9977 -1.42327 -2.14659 16.9775 0.175047 0.908901 17.4186 0.35083
2.65656 17.3925 0.302884 2.42513 16.923 0.172462 0.641391 16.934 1.00898 4.19635
10.9674 -1.50208 -0.588658 17.4315 0.375725 2.77532 7.89326 1.13668 1.63564 17.3754
0.278041 2.30793 0 0 0 20 0 0 17.1079 0.178333
1.29501 16.8866 0.174558 0.124503 0 0 0 17.1552 0.183429 1.44593
17.0829 0.174311 1.13732 16.8774 0.179949 0.240538 17.3644 0.251518 2.18417 17.2657
0.212888 1.83549 17.3073 0.836748 3.73434 17.426 0.559209 3.22408 15.2808 -1.43587
-1.47081 14.9789 1.65547 4.35852 10.7462 0.403275 1.32766 17.0119 0.162844 0.733756
17.2199 0.187413 1.58355 16.9415 0.167502 0.357236 17.4655 0.392035 2.87549 17.081
0.165735 0.975132 17.3637 0.225344 2.05671 18.0547 -1.25336 -1.88903 15.8446 -1.5763
-1.83076 16.73 1.24647 4.54188 13.0871 -1.59681 -0.546069 17.0055 0.158637 0.467292
15.2349 -0.108769 0.323112 17.4405 0.617907 3.34925 9.74713 0.194886 0.0284889 20
0 0 17.3007 0.186549 1.70378 17.2657 0.910209 3.94536 9.94653 2.30874
1.36857 17.5058 0.416337 2.97301 17.3736 0.200972 1.92951 17.1024 0.153397 0.812081
0 0 0 17.2293 0.159675 1.32457 17.1964 0.155038 1.17924 5.92563
3.46906 0.763948 17.0736 0.150064 0.566282 17.5185 0.259784 2.44871 17.5319 0.280978
2.55689 17.5046 0.240974 2.34168 11.3711 0.145354 -1.5707 17.2786 0.164205 1.45948
17.184 0.1527 1.02958 15.1346 1.73504 4.53926 0 0 0 15.475
-0.476529 -1.85967 17.5484 0.302875 2.66425 17.492 0.221876 2.23202 20 0
0 17.4485 0.684043 3.49767 17.0546 0.151912 0.110528 17.5364 0.45103 3.07596
17.3937 0.178965 1.80535 17.0428 0.157694 0.213031 17.3438 0.164808 1.58027 17.4849
0.202589 2.1191 10.2204 2.29735 0.541454 16.7729 1.35239 4.72817 17.1466 0.142676
0.653148 17.1927 0.146095 0.878462 17.2055 0.99389 4.1724 17.5796 0.318356 2.75906
17.1007 0.146305 0.316001 16.3958 -1.47694 -1.5689 17.4855 0.183988 2.00446 13.8389
-1.58679 -0.510626 18.2791 -0.965722 -1.44499 17.5531 0.495655 3.19266 17.3059 0.140862
1.2143 15.564 -0.194136 0.260559 17.1545 0.138791 0.414299 17.4561 0.757861 3.66647
0 0 0 17.3417 0.145531 1.34533 20 0 0 17.4225
0.159811 1.68608 17.2853 0.136443 1.07529 7.1171 4.57728 1.2832 17.2227 0.135115
0.72899 17.6159 0.338158 2.8536 17.4945 0.166514 1.89008 9.23953 3.38946 -1.90791
17.3932 0.146948 1.46496 1.00244 5.24386 0.390133 15.3761 1.75155 4.73113 17.2836
0.135277 0.934435 17.2109 0.131784 0.504583 0 0 0 11.9914 3.45861
-3.93097 17.6219 0.2095 2.37057 17.1877 1.07005 4.35935 17.5672 0.546613 3.32199
17.6368 0.226132 2.47052 17.609 0.194487 2.26987 16.2195 0.716397 -2.07699 16.8608
1.38502 4.87956 17.6451 0.367112 2.95538 17.5988 0.17993 2.16806 20 0
0 17.4588 0.143479 1.5727 17.5115 0.150611 1.77794 17.2042 0.135512 0.0972332
17.6573 0.242444 2.56767 17.4638 0.831859 3.8512 17.3006 0.130195 0.79435 17.1908
0.140718 0.188965 17.2716 0.126023 0.585467 17.5935 0.165787 2.06467 17.4079 0.130372
1.2408 17.3836 0.125689 1.11456 17.6839 0.257937 2.66189 17.2439 0.129646 0.281493
17.4472 0.132146 1.35793 17.6661 0.401357 3.06358 17.3735 0.121371 0.982495 17.5879
0.604375 3.46432 17.5945 0.15229 1.96041 17.5361 0.136578 1.66912 14.5392 -1.60976
-0.386118 8.73584 5.37845 -1.16476 14.1381 4.85062 -4.30593 16.9319 -1.41195 -1.11069
15.8728 -0.29258 0.224771 17.2895 0.122726 0.37062 20 0 0 17.3362
0.119946 0.657865 17.5009 0.129621 1.46596 17.1738 1.1597 4.60122 17.7169 0.274039
2.7522 17.3804 0.121237 0.850622 18.5793 -0.748535 -0.625964 17.6022 0.139687 1.85646
17.486 0.89753 4.04641 17.6869 0.438741 3.17827 17.3366 0.116632 0.45326 0
0 0 0 0 0 17.7444 0.298171 2.85046 17.6172 0.667362
3.61991 17.718 0.171161 2.30393 17.567 0.124307 1.56489 17.4749 0.117817 1.14635
17.7334 0.183706 2.39761 17.7056 0.159764 2.20923 17.5038 0.119815 1.26037 17.4038
0.11767 0.721458 17.4608 0.113304 1.02585 17.6169 0.128201 1.75381 17.6965 0.148883
2.11415 17.2414 1.19974 -1.01345 20 0 0 15.715 1.7192 4.95391
5.11902 6.11676 1.34786 17.3392 0.123688 0.0840432 17.7538 0.19664 2.48901 17.3875
0.111849 0.528323 0 0 0 17.5466 0.117855 1.36704 17.325 0.127746
0.167299 17.6921 0.138383 2.01843 17.4592 0.109122 0.900727 0.624903 6.28795 2.37256
17.7129 0.480619 3.30128 17.7696 0.324518 2.95026 17.7783 0.209678 2.57921 17.1048
1.34533 4.9758 -2.69898 6.17793 1.37419 17.3744 0.116434 0.252369 17.499 0.971701
4.27295 0 0 0 17.6932 0.128474 1.92242 17.6378 0.117905 1.65384
17.6023 0.113691 1.46717 17.655 0.73048 3.78419 17.4426 0.107142 0.596581 15.4041
4.09908 -2.48786 17.4736 0.110212 0.777632 17.4138 0.109111 0.33515 17.8078 0.22342
2.66701 16.0783 -0.36847 0.25018 20 0 0 0 0 0
14.8791 -1.60478 -0.156181 17.7971 0.352479 3.05344 17.7004 0.119365 1.8266 17.5612
0.109374 1.17218 17.5424 0.107146 1.06255 0 0 0 16.8543 -1.39537
-0.567108 17.7445 0.527998 3.43297 17.4532 0.103498 0.410508 17.5953 0.10782 1.27699
17.536 0.103162 0.94726 17.8352 0.242144 2.75925 6.9598 2.64428 -1.88557 17.6633
0.108741 1.5584 15.9365 1.69035 5.0827 18.5925 -0.659503 0.125474 17.5013 0.107301
0.657656 -0.760228 -0.380626 -0.584874 17.8083 0.14213 2.24511 17.8233 0.15145 2.33409
17.7964 0.133829 2.15585 17.7134 0.111078 1.73185 17.5081 1.04333 4.49837 17.6403
0.104585 1.37669 0 0 0 17.5429 0.0990373 0.830069 17.8417 0.161866
2.42223 17.7879 0.125876 2.06664 20 0 0 17.2414 1.35707 5.11811
17.4961 0.0996988 0.480021 17.6992 0.792121 3.95314 17.8282 0.383872 3.16282 17.4573
0.108155 0.0716621 17.8636 0.262134 2.85166 17.4462 0.113839 0.148063 17.784 0.118223
1.97787 17.7517 1.1774 0.181319 17.8651 0.17195 2.50788 17.7839 0.577703 3.56785
0 0 0 17.4904 0.103215 0.227567 17.6931 0.100643 1.46887 17.7307
0.103575 1.64021 17.6211 0.10034 1.08886 17.5607 0.100035 0.714787 17.7855 0.111035
1.88869 0 0 0 17.6416 0.100389 1.19625 17.5431 0.096507 0.543577
17.6051 0.0988063 0.987686 17.8916 0.183567 2.59368 17.5213 0.0973437 0.301275 0
0 0 17.8957 0.28304 2.94586 17.8632 0.418903 3.27697 17.6827 0.0968982
1.2899 15.5124 3.3936 -0.991523 17.611 0.0948302 0.873972 17.7923 0.104357 1.80013
20 0 0 16.2265 1.62263 5.16851 16.2324 -0.382022 0.283027 17.5728
1.08219 4.65556 17.9192 0.197585 2.68005 17.7519 0.848559 4.12563 17.5388 0.0943014
0.381683 17.7514 0.0967807 1.55332 15.0395 -1.53227 0.0913058 17.5931 0.0946695 0.600603
17.7231 0.0946437 1.3875 17.8347 0.627646 3.70615 17.4157 1.33172 5.17212 16.4591
-1.38844 -0.122806 17.6189 0.090255 0.766506 6.49571 2.66777 -1.27939 17.8036 0.0981728
1.71286 17.9303 0.307251 3.04538 17.896 0.119232 2.1919 17.9104 0.125796 2.27624
17.8842 0.114035 2.1078 -1.64739 -0.534185 -0.389954 17.5871 0.0905226 0.443178 17.9503
0.211949 2.76492 18.2778 -0.649509 0.61797 17.9277 0.133781 2.36033 17.8753 0.108485
2.02442 20 0 0 17.9051 0.455089 3.39231 17.5719 0.082549 0.0611784
0 0 0 17.6853 0.0945438 1.1055 17.6707 0.0940159 1.02714 17.5571
0.0920133 0.131959 17.9485 0.142321 2.44385 17.8715 0.102585 1.94189 17.7201 0.0917124
1.22414 17.7774 0.0907935 1.4685 17.6661 0.0918338 0.901606 17.647 0.0850995 0.654519
17.8188 0.092371 1.62792 17.5992 0.0840866 0.201877 17.8418 1.06689 1.03735 17.6186
0.0892602 0.507699 17.9725 0.151776 2.52728 17.8731 0.0972257 1.85877 17.9689 0.333438
3.14619 17.7503 0.0902407 1.29747 17.8291 0.89304 4.29098 17.9845 0.227757 2.85249
17.6578 1.12635 4.82938 17.6708 0.0891859 0.821203 17.6253 0.0823103 0.252386 17.8989
0.676906 3.849 17.9998 0.161952 2.6091 17.879 0.0922334 1.77659 17.956 0.492341
3.50971 15.4773 2.96425 0.132225 17.8342 0.0879671 1.55044 17.8025 0.0866484 1.40264
20 0 0 17.6735 0.0855621 0.558949 17.6931 0.0793147 0.690881 16.4498
-0.345384 0.286382 18.0206 0.246232 2.94386 17.749 0.0871878 1.03825 15.2856 -1.46989
0.213016 0 0 0 17.8889 0.0876952 1.69615 18.0138 0.359837 3.24689
6.5509 2.36925 -0.351538 18.0325 0.171764 2.68762 17.9769 0.106051 2.14606 16.3345
-1.34841 0.165904 17.9908 0.109328 2.2252 17.9647 0.101978 2.0672 17.8001 0.0844358
1.22441 16.5975 1.52865 5.21327 17.7394 0.085074 0.844321 -0.814266 -1.13052 0.173429
18.0077 0.1145 2.30438 17.9557 0.0966342 1.99221 20 0 0 17.6489
0.0715146 0.0571041 17.9089 0.939928 4.46703 17.8453 0.0848368 1.46615 17.9758 0.722194
3.98806 17.9609 -0.638537 0.991033 0 0 0 17.6507 0.0799975 0.12295
17.7138 0.0786708 0.612784 18.0279 0.120663 2.38338 17.9387 0.0923352 1.91585 17.7117
1.25225 5.1265 17.9023 0.0835984 1.61587 18.0614 0.265376 3.03397 18.0156 0.531356
3.62903 18.0666 0.184169 2.77092 17.6794 0.0759145 0.186186 18.0514 0.127355 2.46212
17.9482 0.0872911 1.83378 17.8217 0.922165 1.64947 18.0648 0.387701 3.34914 17.7163
0.0760778 0.240236 18.0783 0.134494 2.5404 17.8827 0.0801484 1.39164 17.9448 0.0842858
1.7584 17.9163 0.0806745 1.55309 17.771 0.0766259 0.64835 18.1035 0.197776 2.85473
0 0 0 15.4995 2.59387 0.957951 18.1082 0.284731 3.12344 20
0 0 18.0599 0.763681 4.11689 16.7817 1.48166 5.17503 17.9843 0.984748
4.61993 16.4714 -0.40472 0.293504 18.1091 0.142283 2.61777 17.9621 0.0803126 1.67975
18.0845 0.569175 3.74252 15.3482 -1.45383 0.262695 17.7811 0.0771994 0.370559 6.95718
1.88063 0.3028 18.0553 0.0895848 2.10792 18.0683 0.0935281 2.18053 18.0445 0.0854989
2.03207 17.8802 1.24378 5.12607 18.1214 0.417105 3.45121 16.1221 -1.31985 0.340214
18.0846 0.0977257 2.25476 18.0389 0.0842465 1.97058 0.270398 -1.64818 0.474688 18.1458
0.211148 2.9359 18.1431 0.151351 2.6969 17.9661 0.0782022 1.60506 0 0
0 18.1043 0.102208 2.32868 17.6469 -0.65383 1.2341 18.1591 0.30616 3.21518
17.8978 0.0727072 1.0794 17.8727 0.0748141 0.907267 18.1273 0.106874 2.4027 17.767
0.748792 2.03261 0 0 0 18.1805 0.160847 2.77526 18.1463 0.800244
4.23319 17.9895 0.0750638 1.53246 18.162 0.605257 3.84953 18.1533 0.111985 2.47704
18.1927 0.225466 3.01789 18.0816 1.00567 4.68962 17.8468 0.0730927 0.475078 18.1853
0.445874 3.54836 17.9549 0.0707407 1.24052 16.9308 1.41016 5.10384 17.8817 0.0732553
0.733476 15.5609 2.23355 1.54322 18.2148 0.328159 3.30477 18.1836 0.11774 2.5493
18.0025 1.21215 5.07298 20 0 0 16.4666 -0.453269 0.304854 7.50481
1.46044 0.756198 18.2235 0.169634 2.84945 15.3603 -1.45103 0.294681 18.1249 0.0748323
2.07147 18.1301 0.0802719 2.14666 18.1072 0.0730607 2.00393 18.2424 0.241822 3.10157
20 0 0 18.1536 0.083617 2.21323 18.108 0.0750059 1.93201 1.42569
-1.91572 0.651708 15.8608 -1.3108 0.441632 18.2185 0.124168 2.6232 17.8485 0.0698557
0.110104 0 0 0 18.165 0.0883457 2.28897 18.2463 0.640232 3.9521
18.239 0.828342 4.3302 18.2556 0.474338 3.64134 17.2936 -0.694784 1.34193 18.1955
0.090604 2.35473 18.1063 0.0708334 1.77773 18.1607 1.03528 4.77396 18.036 0.0679306
1.38263 18.2765 0.349643 3.3902 18.2689 0.180574 2.92709 17.9238 0.0681169 0.56537
17.8963 0.0693851 0.217388 18.2559 0.130961 2.69788 17.6726 0.578083 2.22754 18.213
0.0959567 2.43135 18.2972 0.257936 3.1814 17.9909 0.0652314 0.955537 15.717 1.90406
1.9556 18.2566 0.0968365 2.49341 18.1138 0.0673137 1.63826 18.027 0.0646337 1.10956
18.2961 0.138103 2.77175 17.984 0.0666282 0.796692 0 0 0 17.9401
0.0667375 0.318973 18.3177 0.192327 3.00339 20 0 0 18.3318 0.672632
4.04459 18.3296 0.503925 3.7311 16.459 -0.505151 0.310798 8.45784 1.1123 1.15007
18.3155 0.862259 4.43561 17.0957 1.32269 5.01033 18.3419 0.371836 3.4734 15.3534
-1.45657 0.308701 2.83537 -2.028 0.824862 18.2913 0.0998543 2.5579 15.5772 -1.31312
0.483416 0 0 0 18.1713 1.13227 4.94438 18.3572 0.273816 3.25798
18.3397 0.146232 2.84542 16.9106 -0.746416 1.35965 18.0872 0.0631536 1.25042 18.0059
0.0652674 0.641198 18.327 0.104884 2.62848 18.3718 0.203409 3.07517 18.1349 0.0638858
1.50376 17.9918 0.063653 0.412345 17.5491 0.411182 2.28856 18.4043 0.532829 3.81195
18.4093 0.703668 4.12778 18.409 0.394984 3.55315 0 0 0 18.3875