# vtk DataFile Version 2.0
sampleSurface
ASCII
DATASET POLYDATA
POINTS 29622 float
-0.000626264 0.02 0 -0.000711655 0.02 0.0141674 0.0147896 0.02 0 -0.0159899 0.02
0 -0.00116012 0.02 0.0180502 -0.0155282 0.02 0.0128408 0.0125134 0.02 0.0160665
-0.00153405 0.02 0.0212859 -0.0157761 0.02 0.0167357 0.0119059 0.02 0.0199308 -0.0159829
0.02 0.0199816 0.0113994 0.02 0.0231511 0.0307112 0.02 0 -0.03158 0.02
0 -0.0313963 0.02 0.0122895 0.0322044 0.02 0.0100037 -0.0314347 0.02 0.0161643
-0.0314668 0.02 0.0193933 0.035056 0.02 0.01626 0.0338862 0.02 0.0221196 0.0329105
0.02 0.0270048 0.046561 0.02 0 -0.04742 0.02 0 0.0479306 0.02
0.0101734 -0.0474942 0.02 0.0127772 -0.0473299 0.02 0.0165239 -0.0471929 0.02 0.0196463
0.00924481 0.02 0.0516915 0.0494094 0.02 0.0183313 -0.0134021 0.02 0.0516237 0.0480848
0.02 0.0247778 0.00925064 0.02 0.0544086 0.0469797 0.02 0.0301574 -0.0134578 0.02
0.0549233 -0.0260141 0.02 0.0516224 0.00925771 0.02 0.0576651 0.0285421 0.02 0.0517212
-0.0335024 0.02 0.0503979 -0.0262833 0.02 0.0549314 0.0285517 0.02 0.0551565 -0.0338111
0.02 0.0524296 0.0624323 0.02 0 -0.0635513 0.02 0 0.0631854 0.02
0.0123018 -0.0341816 0.02 0.0548694 -0.0631422 0.02 0.0145995 -0.0627523 0.02 0.0179257
-0.0624271 0.02 0.0206975 0.0285632 0.02 0.0592835 -0.00839835 0.02 0.0658926 0.063721
0.02 0.0227067 -0.0482842 0.02 0.0478235 0.00967915 0.02 0.067425 0.0458271 0.02
0.0517467 -0.0226337 0.02 0.0654011 0.0630239 0.02 0.028683 -0.0486978 0.02 0.0509764
0.062443 0.02 0.0336742 0.0458203 0.02 0.055416 0.026845 0.02 0.0680903 -0.0491941
0.02 0.054759 -0.035021 0.02 0.0649161 0.0458122 0.02 0.0598276 -0.0191597 0.02
0.0732754 -0.00311666 0.02 0.077051 -0.00255422 0.02 0.0782358 0.0784938 0.02 0
0.00194428 0.02 0.0786012 -0.0636358 0.02 0.0466853 -0.0173222 0.02 0.0775525 -0.0765921
0.02 0.0224313 -0.00232999 0.02 0.0798271 -0.0772697 0.02 0.0204922 0.0788037 0.02
0.0139438 -0.0780823 0.02 0.0181648 -0.0802538 0.02 0 0.0124228 0.02 0.0794745
0.0621102 0.02 0.0517893 -0.0640599 0.02 0.0501172 0.044288 0.02 0.0683138 -0.0503008
0.02 0.0642321 0.07854 0.02 0.0258466 0.0621029 0.02 0.0552551 -0.0333233 0.02
0.0767836 -0.0333103 0.02 0.0768858 -0.0334615 0.02 0.0768769 -0.0332875 0.02 0.077004
0.0784374 0.02 0.0301441 0.0269021 0.02 0.0796185 -0.0645673 0.02 0.0542281 -0.0167508
0.02 0.0829226 0.0783517 0.02 0.0337218 0.0620941 0.02 0.059424 0.0435428 0.02
0.078852 -0.0787026 0.02 0.044501 -0.0656735 0.02 0.063512 0.0609156 0.02 0.0687538
-0.0521327 0.02 0.0759212 -0.0794839 0.02 0.0479436 0.0779046 0.02 0.0518514 0.0948037
0.02 0 -0.0158667 0.02 0.0942564 -0.000383487 0.02 0.0955942 -0.0804181 0.02
0.0520697 0.0951817 0.02 0.0152146 0.0779126 0.02 0.0570228 -0.0980541 0.02 0
0.0937075 0.02 0.0295273 0.0934653 0.02 0.0318318 0.0932639 0.02 0.033747 -0.0307605
0.02 0.0947054 0.0142616 0.02 0.0986948 0.0597441 0.02 0.0801689 -0.0909562 0.02
0.0419181 -0.0668854 0.02 0.075392 -0.0998412 0.02 0.016911 -0.0922551 0.02 0.0437855
0.0168196 0.02 0.100996 0.0269517 0.02 0.0992279 0.0450617 0.02 0.09251 0.07753
0.02 0.0682577 -0.0817634 0.02 0.0636401 -0.0938102 0.02 0.0460256 -0.0998281 0.02
0.0335224 0.0926972 0.02 0.0518158 -0.0507033 0.02 0.0933516 -0.00118864 0.02 0.107376
-0.0198713 0.02 0.105984 0.0930811 0.02 0.0549867 0.0322709 0.02 0.103383 -0.0471823
0.02 0.0993111 0.0611389 0.02 0.0920601 0.0757902 0.02 0.0815793 0.111368 0.02
0 -0.0819878 0.02 0.0758654 0.106626 0.02 0.033755 0.111677 0.02 0.015575
-0.0512522 0.02 0.100983 -0.0693622 0.02 0.0901735 0.0443505 0.02 0.105441 -0.114433
0.02 0 0.0941685 0.02 0.0681304 -0.098111 0.02 0.0626988 -0.115406 0.02
0.0159041 0.106639 0.02 0.0514943 0.077111 0.02 0.092559 0.062589 0.02 0.103095
-0.116732 0.02 0.0309014 -0.11361 0.02 0.0456422 -0.0830293 0.02 0.0904377 0.0620976
0.02 0.106128 0.0917701 0.02 0.0824748 -0.0692362 0.02 0.103597 -0.0157512 0.02
0.123653 -0.0981586 0.02 0.0769568 -0.0286459 0.02 0.121586 0.0616911 0.02 0.108642
-0.00135098 0.02 0.126852 0.127678 0.02 0 0.127681 0.02 0.0157497 0.0779179
0.02 0.103318 0.110542 0.02 0.067339 -0.129878 0.02 0 0.0135636 0.02
0.129698 -0.115046 0.02 0.0624473 -0.13025 0.02 0.0155149 0.0926218 0.02 0.0929193
0.127607 0.02 0.0317518 -0.0512544 0.02 0.12196 0.0769845 0.02 0.107826 -0.0979274
0.02 0.0912246 -0.130467 0.02 0.0307187 -0.0830669 0.02 0.105459 0.108343 0.02
0.0804684 0.076205 0.02 0.111591 0.033156 0.02 0.131508 0.0291973 0.02 0.132459
0.126891 0.02 0.0510967 -0.129316 0.02 0.0457947 -0.114159 0.02 0.077738 -0.0672405
0.02 0.121204 0.0915473 0.02 0.105188 0.0335813 0.02 0.13607 0.125156 0.02
0.064945 -0.12863 0.02 0.0610193 0.0903924 0.02 0.110214 0.108416 0.02 0.0927111
-0.0167998 0.02 0.141976 -0.00122092 0.02 0.143552 0.0443986 0.02 0.136994 0.144241
0.02 0 0.014292 0.02 0.143703 -0.0976212 0.02 0.106426 -0.033047 0.02
0.140708 -0.144999 0.02 0 0.144192 0.02 0.0157437 0.0894279 0.02 0.114412
-0.145097 0.02 0.0153857 -0.0822205 0.02 0.121736 0.123616 0.02 0.079756 -0.114272
0.02 0.0926863 0.14381 0.02 0.0316597 -0.0499473 0.02 0.138659 -0.14504 0.02
0.0306779 0.14253 0.02 0.0481078 0.109841 0.02 0.102812 -0.14452 0.02 0.0459283
-0.130173 0.02 0.0778439 -0.0659231 0.02 0.138019 0.140391 0.02 0.0629309 0.0619994
0.02 0.14141 0.1236 0.02 0.0935311 -0.11262 0.02 0.107019 -0.0971985 0.02
0.122314 -0.144037 0.02 0.0612498 0.0610269 0.02 0.144909 -0.00109627 0.02 0.157281
0.112365 0.02 0.110111 -0.0169303 0.02 0.156556 0.0146763 0.02 0.15714 0.0303439
0.02 0.155927 -0.0330245 0.02 0.155701 0.138275 0.02 0.0797507 -0.129523 0.02
0.0935127 0.111013 0.02 0.115179 -0.160051 0.02 0 -0.0813649 0.02 0.138082
0.0598586 0.02 0.149119 -0.160049 0.02 0.0153647 0.161091 0.02 0 0.161419
0.02 0.0155742 0.109887 0.02 0.119403 -0.0491994 0.02 0.154789 0.124483 0.02
0.104644 0.0457774 0.02 0.156097 -0.143679 0.02 0.076667 -0.159941 0.02 0.0307111
0.0761826 0.02 0.145158 0.161411 0.02 0.0311713 -0.159648 0.02 0.0460564 -0.112328
0.02 0.122769 0.159875 0.02 0.0467547 -0.0650648 0.02 0.154354 0.0747878 0.02
0.150266 0.155991 0.02 0.0621477 -0.0966568 0.02 0.138348 0.137954 0.02 0.0972345
-0.12931 0.02 0.108561 0.125571 0.02 0.113477 -0.159317 0.02 0.0614462 0.124052
0.02 0.118682 0.152113 0.02 0.0801569 -0.000945772 0.02 0.171985 -0.144929 0.02
0.0933401 -0.0168136 0.02 0.171642 0.0148827 0.02 0.171926 0.0731134 0.02 0.156401
0.0602399 0.02 0.161942 0.122788 0.02 0.123016 -0.0806767 0.02 0.154269 0.0306552
0.02 0.171538 -0.0327603 0.02 0.171154 -0.175135 0.02 0 -0.175104 0.02
0.0153837 0.139708 0.02 0.10779 -0.159018 0.02 0.0769012 -0.127584 0.02 0.123127
0.177422 0.02 0 -0.0486967 0.02 0.170677 -0.175002 0.02 0.030773 -0.111953
0.02 0.138634 0.178245 0.02 0.0153881 0.0973805 0.02 0.151095 -0.144169 0.02
0.108886 -0.17481 0.02 0.0461761 0.0450262 0.02 0.175324 0.178976 0.02 0.0308584
0.1534 0.02 0.0975439 -0.0961491 0.02 0.154362 0.0752222 0.02 0.165707 -0.0644954
0.02 0.170392 0.171563 0.02 0.0625428 0.140548 0.02 0.117763 0.164921 0.02
0.0802817 0.177632 0.02 0.0464933 -0.15876 0.02 0.0924223 0.0956442 0.02 0.157102
-0.174576 0.02 0.0616128 0.138848 0.02 0.123066 -0.000797289 0.02 0.187164 0.137431
0.02 0.127484 -0.0166397 0.02 0.186993 0.015021 0.02 0.187152 0.0601932 0.02
0.178304 -0.0801553 0.02 0.170288 -0.127292 0.02 0.138895 0.0935604 0.02 0.164311
0.0308071 0.02 0.187002 -0.0324987 0.02 0.186723 0.109749 0.02 0.154715 -0.14375
0.02 0.124002 0.155561 0.02 0.108915 -0.190287 0.02 0 -0.111575 0.02
0.154522 -0.174341 0.02 0.0770964 -0.190252 0.02 0.0154145 0.192081 0.02 0
-0.0483322 0.02 0.186456 -0.190168 0.02 0.0308401 -0.159337 0.02 0.108678 0.192798
0.02 0.015142 0.107888 0.02 0.160863 0.0757736 0.02 0.179351 0.167558 0.02
0.0992129 -0.0957207 0.02 0.170305 -0.190031 0.02 0.046283 0.193359 0.02 0.0304075
0.186572 0.02 0.0617725 0.0451314 0.02 0.191407 0.154026 0.02 0.122375 -0.0640896
0.02 0.186272 -0.174121 0.02 0.0926298 0.191952 0.02 0.0458818 0.182046 0.02
0.0790949 0.105655 0.02 0.168241 0.152267 0.02 0.127652 -0.142678 0.02 0.139122
-0.18986 0.02 0.0617532 -0.126999 0.02 0.154697 0.150801 0.02 0.132046 0.123413
0.02 0.158982 -0.158909 0.02 0.124147 0.0908508 0.02 0.18095 0.0605345 0.02
0.193218 -0.0797642 0.02 0.186185 -0.000663263 0.02 0.202576 0.0151311 0.02 0.202574
-0.0164706 0.02 0.202486 0.170746 0.02 0.110267 -0.111233 0.02 0.170387 -0.189679
0.02 0.0772585 0.0309089 0.02 0.2025 -0.0322747 0.02 0.202338 0.121458 0.02
0.165139 -0.17406 0.02 0.108309 0.205076 0.02 0 -0.205512 0.02 0
0.205099 0.02 0.0148235 -0.205481 0.02 0.0154458 0.204553 0.02 0.0297533 0.202511
0.02 0.0448143 0.183105 0.02 0.0976458 0.198739 0.02 0.0600511 -0.205415 0.02
0.0309025 -0.048054 0.02 0.202184 -0.0953731 0.02 0.186175 0.0756224 0.02 0.195474
0.119113 0.02 0.172531 0.105845 0.02 0.18174 -0.14244 0.02 0.154866 -0.205314
0.02 0.0463754 -0.1581 0.02 0.139316 -0.189501 0.02 0.0928015 0.172722 0.02
0.121629 0.19693 0.02 0.0767081 0.0454421 0.02 0.206433 -0.0637857 0.02 0.202068
-0.126725 0.02 0.170499 -0.174089 0.02 0.124038 -0.205187 0.02 0.0618705 0.0911397
0.02 0.195716 0.186009 0.02 0.110685 -0.11094 0.02 0.186215 0.0608037 0.02
0.208112 -0.0794642 0.02 0.202003 0.215224 0.02 0.0290984 0.216771 0.02 0.014522
0.213014 0.02 0.0437438 0.217464 0.02 0 -0.000546128 0.02 0.218103 0.175966
0.02 0.129296 0.210501 0.02 0.058189 -0.189708 0.02 0.108537 0.0152247 0.02
0.218099 -0.0163223 0.02 0.218056 -0.205048 0.02 0.0773926 0.121368 0.02 0.182669
0.199005 0.02 0.094086 0.0309877 0.02 0.218051 0.174226 0.02 0.134816 -0.0320902
0.02 0.217975 0.145063 0.02 0.165918 -0.220807 0.02 0 -0.157901 0.02
0.155021 -0.220782 0.02 0.0154737 0.172775 0.02 0.139418 -0.142217 0.02 0.170619
-0.173549 0.02 0.139484 -0.220731 0.02 0.0309567 -0.0478372 0.02 0.217886 -0.0950965
0.02 0.201986 0.106373 0.02 0.196425 0.0758406 0.02 0.210351 0.210947 0.02
0.0742626 0.143041 0.02 0.172076 0.188169 0.02 0.123332 -0.204906 0.02 0.0929435
-0.126482 0.02 0.186284 -0.220655 0.02 0.0464532 0.0457602 0.02 0.221204 -0.18917
[...]
POINT_DATA 29622
FIELD attributes 1
U 3 29622 float
20 0 0 24.5449 0.920185 -0.0473681 20 0 0 20 0
0 17.0308 1.12739 -0.0138487 26.4556 0.471168 0.0136408 22.0357 1.53843 -0.410827
0 0 0 22.4957 0.583252 0.0656486 10.307 2.18106 -0.281746 0
0 0 0 0 0 20 0 0 20 0
0 27.052 0.182378 -0.384364 23.7783 1.79652 -0.779546 24.6305 0.182201 -0.408272
0 0 0 17.034 2.86475 -0.822562 3.21433 3.64542 -0.512765 0
0 0 20 0 0 20 0 0 22.0934 2.23331
-0.771178 27.2888 0.120029 -1.29435 25.4069 0.0906532 -1.30316 0 0 0
0 0 0 10.0959 3.41312 -1.13651 0 0 0 -2.42045
3.19912 -0.963712 17.0731 0.0372929 0.16185 0 0 0 13.6788 -0.265087
0.246687 0 0 0 19.5747 0.151274 -0.116695 0 0 0
0 0 0 13.6644 -0.366825 1.02083 17.1846 -0.149767 0.0365435 15.0558
-0.512484 2.16786 20 0 0 20 0 0 18.9414 2.59517
-0.367945 18.1017 -0.383585 2.16006 25.8278 0.251185 -2.53636 23.6988 0.168265 -2.31278
0 0 0 19.5777 -0.0290715 -0.334611 20.9575 -0.70574 0.173503 4.20057
2.99338 -0.498931 0 0 0 21.0723 -0.357785 -0.196177 0 0
0 20.1649 -0.685554 1.002 -6.2301 1.52586 -0.312291 15.1957 -0.300452 2.04786
0 0 0 17.4058 -1.11005 -0.0820016 20.6076 -0.554173 -0.509878 18.5534
-0.048094 1.89566 19.0644 -0.257381 1.69417 19.7877 -1.01992 -0.40432 20.0326 -0.860813
0.37348 20.6516 -1.14216 -0.148943 20.6261 -1.19994 -0.168131 20 0 0
20.5956 -1.23235 -0.225385 0 0 0 19.9541 -1.02548 0.0465909 0
0 0 18.7559 -1.09688 -0.167287 18.709 0.291448 -2.25986 15.3883 2.29589
0.36792 18.9933 0.489902 -2.86673 20 0 0 20.549 -1.23566 -0.382172
0 0 0 16.1519 -0.209591 2.55427 20.5098 -1.54542 -0.557258 18.0575
0.097962 1.59584 1.31571 1.56481 0.758074 17.864 -1.69201 0.0990926 18.9269 -0.438897
0.371233 18.9257 -0.440803 0.359503 18.9168 -0.435301 0.362068 18.8059 -0.438619 0.357837
-6.05349 -0.567542 0.867584 20.0585 -1.40209 -0.807954 18.2979 0.0924263 1.93885 14.0157
-0.751224 0.0333515 0 0 0 20.3626 -1.63944 -0.0366616 20.031 -2.21593
-0.825845 0 0 0 17.3725 0.250575 1.61459 21.0594 -1.99941 -0.188661
17.8194 0.273511 0.716849 16.0327 -0.0144329 3.9166 0 0 0 20
0 0 3.33499 -0.270072 -0.0323431 2.99125 -0.174102 -0.224866 17.7859 0.248582
3.04602 12.2922 0.999521 0.79759 18.9111 -1.43263 0.252504 20 0 0
-0.312496 -0.740292 0.995809 -4.38459 -2.14684 0.921045 0 0 0 3.68459
-0.101496 0.0588753 2.85927 0.0743663 -0.570747 20.3341 -2.56859 -0.405057 0 0
0 17.1269 0.464401 1.18975 15.765 0.663568 -2.21384 12.8126 0.231821 4.48922
2.85286 0.17969 -0.618573 5.94426 0.417053 -2.14529 18.4104 -1.79014 -2.60742 21.356
-1.64338 -0.0118206 16.7263 0.370876 2.228 13.9748 0.493948 3.5827 0 0
0 0 0 0 7.88199 0.295512 0.330333 2.99356 0.102668 -0.227017
3.04328 0.145857 0.00703254 18.2692 -1.24188 -0.0240961 2.51194 0.195696 -1.38686 2.91441
0.259475 0.101511 18.2965 -1.90338 -1.09588 19.9983 -2.20723 -0.229768 20 0
0 16.6129 0.454451 1.77741 0 0 0 11.7191 -0.186356 0.96709
7.51576 0.772005 0.429776 16.513 0.972202 0.848584 0 0 0 20
0 0 20.891 -1.45048 -0.357207 15.9296 0.462001 2.78088 15.2102 0.553348
-0.658538 0 0 0 16.7032 -1.53454 0.0209525 13.6533 0.56169 -0.0858893
13.9198 0.679889 0.209279 14.3086 0.636065 1.93868 16.2815 0.617744 1.60501 10.0763
2.012 1.33767 19.1298 -1.88862 -0.431587 15.6749 1.34002 1.17307 3.08304 0.288674
0.228239 16.1288 0.464172 1.97574 3.30696 0.404459 0.330659 0 0 0
3.04432 0.213937 0.161877 20 0 0 11.9415 -0.535025 0.969625 12.9976
1.22217 1.33578 20.0176 -1.5224 -1.10541 20 0 0 2.73412 0.207188
0.12454 15.491 0.461212 2.1668 15.3993 0.469068 -0.153873 14.8412 -1.33147 0.358829
5.52509 -2.37901 -0.233082 15.0321 2.49407 2.4263 10.2559 2.9193 1.93176 16.1172
0.519774 1.70831 14.7875 0.505594 0.302289 15.9334 0.767844 1.69008 18.2802 -1.83741
-0.849761 0 0 0 0 0 0 2.00465 0.10035 -0.119644
13.0744 -2.33867 -1.78748 14.9303 0.470791 0.995754 15.8854 0.420502 1.73839 15.6652
1.16922 1.96922 11.8371 1.10536 1.87597 2.84688 0.17156 0.824245 19.2188 -1.69933
-1.74366 15.5559 0.401037 1.32232 10.6152 2.94099 2.20785 13.4924 -1.44916 0.224298
16.543 1.51038 3.06652 16.2298 1.30511 2.81284 0 0 0 20
0 0 15.4262 0.962903 3.03091 16.0773 0.557999 1.67751 16.3631 1.64675
3.48339 20 0 0 12.0277 -0.522253 0.775669 0 0 0
15.6062 0.394077 0.0626044 15.9817 0.757906 1.94877 17.1783 -1.81221 -1.16578 16.066
0.414268 1.58746 6.31146 -2.62214 -0.459779 16.1614 1.27321 3.02182 15.3895 0.40884
0.344628 12.4 -2.64232 -1.96802 10.9662 -0.0987833 1.47004 15.5047 0.383465 0.757731
15.9262 0.363143 1.37495 16.2132 0.824893 2.33632 18.4808 -1.64704 -2.05878 0
0 0 12.2234 -1.4146 0.097609 16.1833 0.415671 1.58088 16.1763 0.528862
1.76744 15.8088 0.345059 1.0408 13.6047 1.04151 3.52989 16.7833 1.00958 2.76279
11.3293 1.2086 2.11259 16.7996 1.00684 2.70654 16.5438 0.924785 3.04071 16.1026
0.667949 3.62391 16.6542 0.940147 2.74422 16.0719 -1.64763 -1.28946 16.1495 0.344317
1.3828 10.0676 2.0476 1.98998 20 0 0 16.2896 0.616888 2.08584
15.1754 0.815294 3.98554 15.8897 0.328244 0.131299 20 0 0 12.5143
-0.422559 0.575714 0 0 0 16.5149 0.768565 2.5789 10.5767 -0.29584
1.28717 16.0779 0.584827 4.05724 16.0752 0.314716 1.15071 15.8039 0.334574 0.344626
0 0 0 7.76079 -2.3928 -0.604597 15.89 0.314091 0.605836 16.3259
0.395613 1.62322 12.9369 -2.37919 -1.9998 16.512 0.600084 2.2976 13.913 1.24855
3.66429 18.0189 -1.47962 -2.15719 16.4041 0.451457 1.85004 11.2884 -1.36863 0.0835835
16.3087 0.329433 1.4155 11.2426 0.812154 1.93101 16.0691 0.290615 0.81993 9.63561
1.31265 1.86179 15.2219 -1.54208 -1.32137 16.9284 0.700243 2.84582 16.2779 0.291102
1.20275 16.9126 0.687933 2.73641 16.8694 0.718006 3.0076 15.9202 0.971859 4.08575
16.4703 0.706055 3.90439 0 0 0 16.5639 0.470692 2.07535 16.8163
0.708535 3.24802 16.8234 0.646008 2.62044 20 0 0 16.1457 0.276187
0.146979 10.354 -0.58132 1.10173 16.2541 0.269099 0.959146 16.4569 0.313095 1.46499
20 0 0 16.7508 0.551121 2.43228 16.1125 0.281019 0.319276 16.5181
0.35139 1.67003 13.0876 -0.347693 0.416217 0 0 0 16.4357 0.273397
1.2586 16.1903 0.263681 0.512747 16.8827 0.694563 3.4206 9.30194 -2.10746 -0.751878
10.6535 -1.55818 -0.0353856 16.6328 0.368505 1.86992 16.4813 0.772197 3.8643 16.7475
0.450634 2.22521 17.6516 -1.37306 -2.18089 10.9423 0.222618 1.85421 14.6031 -1.6124
-1.26657 13.7338 -2.0463 -2.06263 16.4161 0.250576 1.04628 14.165 1.41393 3.76391
16.3097 0.246855 0.684186 8.82847 0.367086 1.85652 17.0378 0.506087 2.72774 0
0 0 17.0272 0.489399 2.62137 17.0153 0.533338 2.86484 17.0184 0.728731
3.49385 16.7807 0.367517 2.0364 16.6286 0.282552 1.50727 16.2356 1.04996 4.03071
17.0046 0.55834 3.02443 16.986 0.456777 2.49977 0 0 0 16.5841
0.256116 1.31396 10.0231 -0.9845 0.942876 20 0 0 16.7159 0.297421
1.69389 16.4426 0.230512 0.815902 16.3784 0.234039 0.141942 20 0 0
16.9518 0.402843 2.33802 16.3614 0.238826 0.288272 16.5636 0.232358 1.11397 13.6195
-0.293658 0.299344 14.3255 1.54937 3.86393 17.0202 0.772114 3.60179 10.2347 -1.69076
-0.00809918 16.831 0.300622 1.85984 16.4305 0.223801 0.442716 10.4063 -1.89524 -0.842592
17.5197 -1.36385 -2.18669 17.06 0.571144 3.16752 10.3214 -0.341219 1.77093 16.947
0.344893 2.16432 16.5699 0.215434 0.912927 14.2539 -1.84912 -2.10759 14.4463 -1.78401
-1.25997 16.281 1.18932 4.13213 7.97376 -0.19244 1.78622 16.7376 0.234927 1.36187
16.5197 0.211084 0.584969 16.8029 0.245007 1.53663 0 0 0 0
0 0 16.7035 0.217464 1.17708 16.9146 0.830894 3.75139 17.1363 0.617777
3.30081 16.9655 0.293254 1.99791 17.1592 0.393963 2.61205 17.1594 0.420039 2.74134
17.1457 0.371831 2.49982 9.77329 -1.0813 0.87749 16.894 0.250184 1.70043 16.6197
0.198469 0.704757 17.1649 0.444359 2.87973 17.1233 0.342894 2.38029 14.5273 1.54458
4.05529 16.6931 0.200823 0.989573 20 0 0 20 0 0
14.0914 -0.261752 0.228099 16.5838 0.200362 0.130475 11.2192 -1.74883 -0.876809 14.6974
-1.7351 -2.12377 10.2922 -1.81559 -0.124707 17.6486 -1.40253 -2.23644 16.5708 0.205725
0.257326 17.107 0.307713 2.24364 17.001 0.249122 1.84105 17.1822 0.671621 3.41106
16.315 1.173 4.3152 16.8445 0.901635 3.90923 16.893 0.206692 1.39674 16.6332
0.192438 0.387609 16.844 0.200206 1.23023 16.7212 0.186639 0.801614 10.6238 -0.406365
1.58556 14.8036 -1.7871 -1.36876 17.2056 0.460393 2.99778 17.1057 0.271741 2.09883
16.9636 0.211706 1.55508 16.8201 0.18858 1.05606 16.7041 0.182289 0.509954 17.1735
0.737243 3.54589 9.76337 -0.873621 0.66698 17.0486 0.213615 1.69643 17.252 0.493034
3.1038 17.1194 0.238429 1.95479 12.0126 -1.62982 -0.859098 14.5162 -0.258521 0.184866
15.175 -1.60969 -2.05182 20 0 0 17.2783 0.311539 2.51969 10.2615
0.403634 1.84214 17.7979 -1.35573 -2.10937 16.8249 0.174968 0.881361 17.2874 0.334671
2.63787 17.2641 0.29109 2.40693 16.7829 0.172251 0.617898 16.7486 0.968259 4.15637
10.9291 -1.40528 -0.586783 17.299 0.357231 2.7562 7.8965 1.15757 1.63732 17.2486
0.268208 2.2898 0 0 0 20 0 0 16.9841 0.177674
1.27113 16.7659 0.1733 0.117753 0 0 0 17.0377 0.182321 1.42359
16.9493 0.173819 1.11248 16.7522 0.179255 0.229338 17.2392 0.243497 2.16613 17.146
0.208851 1.81598 17.1532 0.799124 3.70624 17.2865 0.531439 3.20158 15.2185 -1.37331
-1.45592 14.7857 1.59541 4.30747 10.7274 0.492672 1.30046 16.8645 0.163189 0.710346
17.1041 0.185496 1.56305 16.8085 0.167283 0.342505 17.332 0.371396 2.85606 16.9355
0.165725 0.950302 17.2403 0.218969 2.0389 17.8752 -1.17414 -1.86196 15.7759 -1.47787
-1.91799 16.509 1.1982 4.48707 12.7728 -1.55478 -0.826458 16.8673 0.158908 0.450138
14.906 -0.287822 0.144699 17.2989 0.587021 3.32552 9.74328 0.338432 -0.0268233 20
0 0 17.1831 0.183724 1.68511 17.108 0.869534 3.91462 9.87735 2.34855
1.32621 17.3712 0.393374 2.95316 17.2521 0.196057 1.91209 16.9505 0.154112 0.789442
0 0 0 17.1147 0.159445 1.30449 17.0757 0.155207 1.1584 5.91453
3.48793 0.758489 16.9315 0.150838 0.547875 17.3893 0.247221 2.432 17.4014 0.266303
2.53981 17.3767 0.230356 2.32525 11.3767 0.258228 -1.57006 17.1651 0.163242 1.44057
17.0534 0.15297 1.00856 14.9355 1.67233 4.48401 0 0 0 15.4453
-0.39512 -1.84862 17.4167 0.286006 2.64674 17.3657 0.213051 2.21585 20 0
0 17.3049 0.649974 3.47283 16.9275 0.152074 0.105348 17.4006 0.425493 3.0555
17.2739 0.175335 1.78852 16.9121 0.158289 0.204572 17.2282 0.163029 1.5627 17.3602
0.195411 2.10321 10.1635 2.38764 0.465397 16.5473 1.30133 4.66806 16.9983 0.14385
0.634457 17.0492 0.146785 0.857888 17.0406 0.950762 4.13704 17.4467 0.29942 2.74117
16.9635 0.147186 0.30482 16.3256 -1.37675 -1.64116 17.3624 0.178311 1.98892 13.5311
-1.52754 -0.756758 18.1232 -0.872489 -1.4209 17.4162 0.467395 3.1712 17.1936 0.141365
1.19661 15.2884 -0.340141 0.107057 17.0134 0.14003 0.401106 17.311 0.720366 3.63989
0 0 0 17.2303 0.145374 1.32823 20 0 0 17.3045
0.157307 1.67005 17.1671 0.137326 1.05748 6.99023 4.61499 1.19421 17.071 0.136531
0.710611 17.4819 0.317025 2.83519 17.373 0.162176 1.87503 9.22501 3.48978 -1.95728
17.2794 0.146065 1.44871 1.00186 5.25337 0.347618 15.1712 1.68729 4.67183 17.1552
0.136228 0.91697 17.0669 0.133382 0.490172 0 0 0 12.0268 3.55034
-3.90893 17.4931 0.198175 2.35547 17.0184 1.02587 4.32083 17.4289 0.515597 3.29932
17.5067 0.212868 2.45499 17.4816 0.184959 2.25516 16.2296 0.805642 -2.0412 16.6334
1.33332 4.81571 17.5099 0.343556 2.93626 17.4729 0.172044 2.15372 20 0
0 17.3425 0.141953 1.55765 17.3917 0.147454 1.7635 17.0721 0.136751 0.0932701
17.5259 0.227211 2.55167 17.3162 0.791147 3.82214 17.1586 0.131485 0.777549 17.0557
0.142326 0.182511 17.1224 0.127909 0.570641 17.4691 0.159394 2.05073 17.2981 0.130877
1.22563 17.2732 0.126805 1.09926 17.5512 0.240689 2.64539 17.1032 0.131387 0.272925
17.335 0.132021 1.34317 17.5299 0.375312 3.04351 17.2571 0.122878 0.967554 17.4482
0.570495 3.44002 17.4715 0.147254 1.94691 17.418 0.134456 1.65544 14.2512 -1.53243
-0.596177 8.59905 5.39201 -1.21068 14.2394 4.94365 -4.24663 16.8605 -1.30451 -1.15918
15.6483 -0.408284 0.096387 17.1459 0.124756 0.360442 20 0 0 17.1846
0.121967 0.643129 17.3863 0.128935 1.45207 16.9943 1.11433 4.55627 17.583 0.25472
2.73514 17.2537 0.122781 0.836348 18.4407 -0.635749 -0.596795 17.4808 0.135873 1.84347
17.3366 0.854861 4.01567 17.5497 0.410221 3.15703 17.1909 0.118926 0.441987 0
0 0 0 0 0 17.6092 0.276571 2.83258 17.4758 0.630592
3.59339 17.5894 0.160944 2.29031 17.4504 0.123085 1.5521 17.3665 0.118876 1.13313
17.6035 0.171726 2.3835 17.5783 0.151186 2.19609 17.393 0.120314 1.2472 17.2629
0.119495 0.70794 17.3518 0.114944 1.01289 17.4969 0.125463 1.74143 17.5705 0.141811
2.10145 17.2711 1.28989 -0.934439 20 0 0 15.5003 1.65513 4.89004
4.94163 6.09732 1.25518 17.2033 0.125741 0.0811374 17.6225 0.182836 2.47438 17.2372
0.114343 0.516643 0 0 0 17.4335 0.117876 1.35442 17.1864 0.130211
0.16238 17.5674 0.132676 2.00621 17.3442 0.111169 0.888434 0.528338 6.2384 2.2543
17.5746 0.449613 3.2786 17.6333 0.300631 2.93138 17.6457 0.193979 2.56403 16.8837
1.29408 4.91293 -2.7117 6.11821 1.28299 17.2309 0.11889 0.245731 17.3446 0.927708
4.23824 0 0 0 17.5699 0.123996 1.91069 17.5192 0.116104 1.64218
17.4872 0.113236 1.4554 17.5119 0.691245 3.75571 17.2908 0.109699 0.584916 15.5786
4.21323 -2.37 17.3482 0.112248 0.766161 17.2681 0.111834 0.327299 17.6739 0.205765
2.6512 15.8839 -0.460175 0.142748 20 0 0 0 0 0
14.6109 -1.51946 -0.343622 17.6596 0.326309 3.03336 17.5785 0.11599 1.8154 17.4516
0.110387 1.1606 17.4351 0.108681 1.05125 0 0 0 16.8023 -1.28847
-0.612026 17.6049 0.494557 3.4084 17.3059 0.106404 0.401764 17.4836 0.10842 1.26576
17.4281 0.105248 0.936492 17.7 0.222386 2.74258 7.29738 2.71928 -1.86042 17.5461
0.107747 1.54755 15.7153 1.62791 5.01438 18.4632 -0.536781 0.152063 17.3612 0.109679
0.646925 -0.439247 -0.432365 -0.60256 17.6792 0.132913 2.23285 17.693 0.140623 2.32129
17.6686 0.126104 2.14412 17.5927 0.108677 1.72124 17.3456 0.998614 4.45826 17.5267
0.104769 1.36601 0 0 0 17.4289 0.101485 0.820171 17.7101 0.149328
2.40885 17.6614 0.11952 2.05542 20 0 0 17.013 1.30605 5.04931
17.3449 0.102701 0.470878 17.5542 0.7509 3.9221 17.6895 0.355407 3.14131 17.3186
0.11097 0.0696734 17.727 0.240255 2.83395 17.305 0.117117 0.144341 17.6587 0.113107
1.96716 17.7723 1.27169 0.284748 17.7322 0.157664 2.49388 17.6427 0.542031 3.54121
0 0 0 17.3448 0.10633 0.222353 17.5773 0.100332 1.45894 17.6114
0.102021 1.63027 17.5124 0.101783 1.07886 17.4363 0.102484 0.705696 17.6614 0.107031
1.87849 0 0 0 17.531 0.10144 1.18626 17.3912 0.0995028 0.534372
17.4985 0.100753 0.978103 17.7573 0.167438 2.57897 17.3741 0.10066 0.295253 0
0 0 17.7577 0.25904 2.92693 17.7232 0.388196 3.25373 17.5704 0.0976014
1.28039 15.7544 3.51981 -0.823524 17.5039 0.097257 0.865237 17.6696 0.101337 1.79047
20 0 0 16.0015 1.5627 5.09696 16.0784 -0.461771 0.19939 17.4047
1.03807 4.61171 17.7835 0.17951 2.66448 17.6039 0.805912 4.0914 17.3905 0.0976214
0.374617 17.6334 0.0959477 1.5441 14.7438 -1.4525 -0.0782434 17.4533 0.0975555 0.592151
17.6085 0.0948798 1.37842 17.6916 0.589977 3.67712 17.1857 1.28238 5.10056 16.3958
-1.28738 -0.176083 17.5047 0.0929222 0.758584 7.15032 2.76461 -1.26443 17.6821 0.0960185
1.7038 17.7908 0.281102 3.02499 17.7662 0.110953 2.18091 17.7794 0.116044 2.26469
17.7556 0.107107 2.09737 -1.13631 -0.646267 -0.430937 17.4356 0.0938825 0.435855 17.8132
0.191919 2.74834 18.1617 -0.527412 0.648229 17.7954 0.122454 2.34815 17.748 0.102791
2.01454 20 0 0 17.7635 0.422326 3.36712 17.431 0.0860513 0.0599222
0 0 0 17.5759 0.0960073 1.09659 17.5627 0.0957561 1.0184 17.414
0.0959989 0.129169 17.8149 0.129342 2.43098 17.7454 0.0979988 1.93254 17.6087 0.0927586
1.21563 17.6607 0.0905653 1.46007 17.5604 0.0941806 0.893684 17.5235 0.0879584 0.647464
17.6985 0.0909817 1.61955 17.452 0.0878189 0.197864 17.8461 1.15602 1.1557 17.4666
0.0925265 0.499992 17.8375 0.137053 2.51365 17.7483 0.0936262 1.84997 17.8279 0.305177
3.12415 17.6372 0.0909874 1.28912 17.6783 0.849937 4.25461 17.846 0.205742 2.83472
17.4769 1.0826 4.7791 17.5641 0.0918012 0.813918 17.4769 0.0861694 0.248123 17.7535
0.637442 3.81712 17.8633 0.14544 2.59459 17.7554 0.0895093 1.76834 17.8124 0.457673
3.48232 15.7813 3.08113 0.33719 17.7151 0.0872079 1.54268 17.6867 0.0868257 1.39491
20 0 0 17.5349 0.0887455 0.552145 17.5774 0.082185 0.684721 16.3623
-0.427133 0.229314 17.8805 0.222192 2.92465 17.6403 0.0890216 1.03087 14.9703 -1.39806
0.060164 0 0 0 17.7666 0.0857414 1.68849 17.871 0.329583 3.223
7.46695 2.45705 -0.283543 17.8944 0.153481 2.67213 17.8466 0.0984566 2.1364 16.232
-1.2559 0.11577 17.8593 0.100497 2.21498 17.8356 0.0955419 2.05809 17.6879 0.0855905
1.21727 16.3618 1.47173 5.1391 17.6334 0.0876616 0.837969 -0.109439 -1.31679 0.170228
17.8748 0.104292 2.2935 17.8278 0.0912809 1.98363 20 0 0 17.5067
0.0751999 0.0562126 17.7514 0.896661 4.42642 17.7277 0.0846658 1.45881 17.8278 0.681333
3.9538 17.843 -0.52607 1.01325 0 0 0 17.5061 0.0840589 0.120793
17.5907 0.0817588 0.607 17.8937 0.108965 2.37178 17.8122 0.0880351 1.90756 17.4835
1.20439 5.05716 17.7812 0.0823266 1.60889 17.9195 0.239362 3.01318 17.8698 0.49486
3.59914 17.927 0.163984 2.75425 17.5314 0.0798517 0.182922 17.9157 0.114059 2.44974
17.823 0.083911 1.82619 17.8081 0.991137 1.7547 17.9199 0.355555 3.32318 17.567
0.0801012 0.23687 17.941 0.119549 2.52712 17.7661 0.0804642 1.38524 17.8208 0.081734
1.75123 17.7962 0.0798832 1.54667 17.6562 0.0797271 0.64358 17.9622 0.175673 2.83669
0 0 0 15.8493 2.67132 1.19408 17.9644 0.2568 3.1009 20
0 0 17.9087 0.721777 4.0799 16.5376 1.42632 5.09886 17.8161 0.941387
4.57453 16.402 -0.480943 0.24435 17.9701 0.125631 2.60346 17.8392 0.0785003 1.67331
17.9358 0.531028 3.71019 15.0316 -1.39737 0.120773 17.6299 0.08091 0.366438 8.01184
1.92435 0.479597 17.9248 0.082472 2.09963 17.9365 0.0854012 2.17167 17.9153 0.0793782
2.02431 17.6384 1.19594 5.05245 17.9742 0.383129 3.423 16.004 -1.24742 0.291535
17.9515 0.0884391 2.24525 17.9108 0.0789363 1.96325 1.04072 -1.87481 0.547001 18.0027
0.18719 2.9164 18.0024 0.132892 2.68142 17.8444 0.0770379 1.5991 0 0
0 17.9697 0.091653 2.31845 17.5161 -0.560759 1.23794 18.013 0.276337 3.19067
17.7872 0.0748454 1.07466 17.7651 0.0775158 0.902786 17.9913 0.0949387 2.39167 17.7218
0.789275 2.1159 0 0 0 18.038 0.140569 2.75849 17.9905 0.757513
4.19339 17.869 0.0744752 1.52725 18.0103 0.565642 3.81464 18.0157 0.0985787 2.46511
18.0475 0.199668 2.99673 17.9051 0.962814 4.64194 17.7098 0.0768377 0.471333 18.0353
0.410165 3.51783 17.8402 0.0721865 1.23606 16.6809 1.35597 5.02716 17.7755 0.0765195
0.730063 15.9372 2.25794 1.79386 18.0662 0.296492 3.27816 18.0442 0.102755 2.5364
17.755 1.16453 4.9983 20 0 0 16.4168 -0.532619 0.262495 8.62948
1.50767 1.02034 18.0789 0.147609 2.83131 15.036 -1.41372 0.164747 17.9942 0.0681866
2.06431 17.9982 0.0725764 2.13882 17.9778 0.067317 1.99718 18.0949 0.214152 3.07856
20 0 0 18.0204 0.0748916 2.20485 17.9798 0.0701883 1.92583 2.18164
-2.01395 0.78796 15.7213 -1.26241 0.39274 18.0772 0.107505 2.6092 17.7013 0.0739113
0.108968 0 0 0 18.0304 0.078438 2.27977 18.0907 0.599184 3.91443
18.0791 0.785269 4.28939 18.1023 0.436979 3.60841 17.1442 -0.625141 1.34104 18.0595
0.0795131 2.34486 17.9806 0.0679825 1.77281 17.9674 0.991596 4.72056 17.9176 0.06862
1.37895 18.1249 0.316171 3.36144 18.1222 0.156722 2.90736 17.8101 0.0718911 0.563196
17.7459 0.0735827 0.215526 18.1125 0.112574 2.68264 17.5831 0.591028 2.28211 18.0754
0.0834846 2.42049 18.1471 0.228418 3.15646 17.8815 0.0680728 0.952842 16.0737 1.89295
2.17006 18.1173 0.0830404 2.48188 17.9902 0.0659715 1.63447 17.9138 0.0668983 1.10681
18.1506 0.11796 2.75516 17.8771 0.0699267 0.794427 0 0 0 17.7885
0.0709117 0.316802 18.1686 0.16664 2.98194 20 0 0 18.1722 0.630218
4.0051 18.1724 0.464877 3.69566 16.4232 -0.589769 0.275633 9.52558 1.24559 1.42201
18.1468 0.818317 4.39155 16.8353 1.26795 4.9334 18.187 0.336562 3.44242 15.014
-1.43837 0.189388 3.54114 -1.87537 0.981832 18.1503 0.0847208 2.5455 15.4082 -1.2893
0.429884 0 0 0 17.9255 1.08346 4.87307 18.2041 0.242455 3.23108
18.1919 0.124276 2.82732 16.7424 -0.699356 1.34654 17.9705 0.0647821 1.24814 17.9
0.0689968 0.63996 18.1839 0.088213 2.61496 18.22 0.175907 3.05198 18.0133 0.0638109
1.50113 17.8552 0.0678031 0.410681 17.4152 0.40388 2.30317 18.2428 0.492007 3.77437
18.2454 0.659759 4.08643 18.2503 0.357864 3.51995 0 0 0 18.2371