# vtk DataFile Version 2.0
sampleSurface
ASCII
DATASET POLYDATA
POINTS 4972 float
4 2.90752e-06 0 4 -0.0312483 0 4 2.85017e-06 0.0312519 4 0.031254
0 4 -0.0312483 0.0312519 4 0.031254 0.0312519 4 -0.0624994 0
4 2.75539e-06 0.0625039 4 0.062505 0 4 -0.0624995 0.0312519 4
-0.0312484 0.0625039 4 0.0312539 0.0625038 4 0.062505 0.0312519 4 -0.0624996
0.0625038 4 0.0625049 0.0625038 4 -0.0937506 0 4 2.62364e-06 0.0937558
4 0.093756 0 4 -0.0937506 0.0312519 4 -0.0312486 0.0937557 4
0.0937559 0.0312518 4 0.0312537 0.0937557 4 -0.0937507 0.0625037 4 -0.0624998
0.0937557 4 0.0937558 0.0625036 4 0.0625048 0.0937556 4 -0.125002 0
4 0.125007 0 4 2.45461e-06 0.125008 4 -0.125002 0.0312518 4
0.125007 0.0312518 4 -0.0312487 0.125008 4 0.0312536 0.125008 4 -0.0937509
0.0937555 4 0.0937557 0.0937554 4 -0.125002 0.0625035 4 -0.0624999 0.125007
4 0.125007 0.0625035 4 0.0625046 0.125007 4 -0.156253 0 4
-0.125002 0.0937553 4 -0.0937511 0.125007 4 0.156257 0 4 0.125006
0.0937552 4 0.0937555 0.125007 4 2.2494e-06 0.156259 4 -0.156253 0.0312517
4 0.156257 0.0312517 4 -0.031249 0.156259 4 0.0312534 0.156259 4
-0.156253 0.0625034 4 0.156257 0.0625033 4 -0.0625002 0.156259 4 0.0625044
0.156259 4 -0.125002 0.125007 4 0.125006 0.125007 4 -0.156253 0.093755
4 -0.0937514 0.156259 4 0.156257 0.0937549 4 0.0937553 0.156259 4
-0.187503 0 4 0.187508 0 4 2.0071e-06 0.187511 4 -0.187503
0.0312516 4 0.187508 0.0312516 4 -0.0312492 0.187511 4 0.0312532 0.187511
4 -0.187504 0.0625032 4 0.187508 0.0625031 4 -0.0625005 0.187511 4
0.0625042 0.187511 4 -0.156253 0.125007 4 -0.125002 0.156259 4 0.156257
0.125007 4 0.125006 0.156259 4 -0.187504 0.0937547 4 0.187507 0.0937546
4 -0.0937517 0.187511 4 0.0937551 0.187511 4 -0.218754 0 4
0.218758 0 4 1.73283e-06 0.218763 4 -0.218754 0.0312515 4 0.218758
0.0312515 4 -0.156253 0.156258 4 0.156257 0.156258 4 -0.0312495 0.218763
4 0.0312529 0.218763 4 -0.187504 0.125006 4 0.187507 0.125006 4
-0.125003 0.18751 4 0.125006 0.18751 4 -0.218754 0.0625029 4 0.218758
0.0625029 4 -0.0625008 0.218763 4 0.0625039 0.218763 4 -0.218754 0.0937544
4 0.218758 0.0937543 4 -0.093752 0.218762 4 0.0937549 0.218762 4
-0.187504 0.156258 4 -0.156254 0.18751 4 0.187507 0.156258 4 0.156257
0.18751 4 -0.250004 0 4 0.250008 0 4 1.43381e-06 0.250015
4 -0.250005 0.0312514 4 -0.218755 0.125006 4 0.250008 0.0312513 4
0.218758 0.125006 4 -0.125003 0.218762 4 0.125006 0.218762 4 -0.0312498
0.250015 4 0.0312526 0.250014 4 -0.250005 0.0625027 4 0.250008 0.0625027
4 -0.0625011 0.250014 4 0.0625037 0.250014 4 -0.187505 0.187509 4
0.187507 0.187509 4 -0.250005 0.093754 4 0.250008 0.093754 4 -0.0937523
0.250014 4 0.0937546 0.250014 4 -0.218755 0.156257 4 0.218757 0.156257
4 -0.156254 0.218761 4 0.156256 0.218761 4 -0.250005 0.125005 4
0.250008 0.125005 4 -0.125003 0.250014 4 0.125005 0.250013 4 -0.281255
0 4 0.281258 0 4 1.11352e-06 0.281266 4 -0.281255 0.0312512
4 0.281258 0.0312512 4 -0.0312501 0.281266 4 0.0312523 0.281266 4
-0.281255 0.0625025 4 0.281258 0.0625024 4 -0.218755 0.187509 4 0.218757
0.187508 4 -0.187505 0.218761 4 0.187507 0.21876 4 -0.0625014 0.281266
4 0.0625033 0.281266 4 0.0815282 0.281265 4 0.0625033 0.286625 4
0.0937543 0.278097 4 -0.250005 0.156257 4 0.250008 0.156256 4 -0.156254
0.250013 4 0.156256 0.250012 4 -0.281255 0.0937537 4 0.281258 0.0937536
4 -0.0937526 0.281266 4 0.0937542 0.281265 4 0.0312521 0.295659 4
0.125005 0.27035 4 8.6292e-07 0.304749 4 0.156256 0.262911 4 -0.281255
0.125005 4 0.281258 0.125005 4 0.125005 0.281264 4 -0.125004 0.281265
4 -0.218756 0.21876 4 0.218757 0.21876 4 -0.312505 0 4
0.312508 0 4 -0.250006 0.187508 4 0.250007 0.187508 4 -0.187505
0.250012 4 0.187506 0.250012 4 7.80021e-07 0.312517 4 -0.0269853 0.312517
4 -0.312505 0.0312511 4 0.312508 0.0312511 4 0.0312519 0.312517 4
-0.0312505 0.312517 4 -0.0312505 0.313916 4 0.187506 0.255809 4 -0.312505
0.0625022 4 0.312508 0.0625022 4 0.062503 0.312517 4 -0.0625017 0.312517
4 -0.281256 0.156256 4 0.281258 0.156256 4 0.156256 0.281264 4
-0.156255 0.281264 4 -0.312505 0.0937533 4 0.312508 0.0937532 4 0.0937539
0.312516 4 -0.093753 0.312517 4 0.214502 0.250011 4 -0.0625018 0.323793
4 0.218757 0.249112 4 -0.250006 0.218759 4 0.250007 0.218759 4
-0.218756 0.250011 4 0.218757 0.250011 4 -0.312505 0.125004 4 0.312508
0.125004 4 0.125005 0.312515 4 -0.125004 0.312516 4 -0.281256 0.187507
4 0.281257 0.187507 4 0.187506 0.281263 4 -0.187506 0.281263 4
-0.343755 0 4 0.343758 0 4 4.42059e-07 0.343769 4 -0.343755
0.031251 4 0.343758 0.031251 4 0.0312516 0.343768 4 -0.0312508 0.343769
4 -0.0937532 0.33293 4 0.250007 0.243101 4 -0.343755 0.062502 4
-0.312506 0.156255 4 0.343758 0.0625019 4 0.312507 0.156255 4 0.156255
0.312515 4 -0.156255 0.312515 4 0.0625026 0.343768 4 -0.062502 0.343768
4 0.250007 0.25001 4 -0.250007 0.25001 4 -0.343755 0.0937529 4
0.343758 0.0937529 4 -0.281256 0.218758 4 0.281257 0.218758 4 0.218756
0.281262 4 -0.218756 0.281262 4 0.0937535 0.343767 4 -0.0937533 0.343768
4 -0.125004 0.341229 4 -0.312506 0.187506 4 0.312507 0.187506 4
0.187506 0.312514 4 -0.187506 0.312515 4 -0.343755 0.125004 4 0.343757
0.125004 4 0.125004 0.343766 4 -0.125004 0.343767 4 0.281257 0.237336
4 -0.135979 0.343767 4 -0.375004 0 4 0.375008 0 4
1.09444e-07 0.375019 4 -0.375005 0.0312509 4 0.375007 0.0312509 4 0.281257
0.250009 4 -0.281257 0.250009 4 0.250006 0.281261 4 -0.250007 0.281261
4 0.0312512 0.375019 4 -0.0312511 0.375019 4 -0.343756 0.156255 4
0.343757 0.156255 4 0.156255 0.343765 4 -0.156256 0.343766 4 -0.375005
0.0625017 4 0.375007 0.0625017 4 0.0625022 0.375019 4 -0.0625023 0.375019
4 -0.312506 0.218758 4 0.312507 0.218757 4 0.218756 0.312513 4
-0.218757 0.312514 4 -0.156256 0.349389 4 -0.375005 0.0937526 4 0.375007
0.0937525 4 0.0937531 0.375018 4 -0.0937536 0.375019 4 0.312507 0.231749
4 -0.343756 0.187506 4 0.343757 0.187506 4 0.187505 0.343764 4
-0.187506 0.343765 4 -0.375005 0.125003 4 0.375007 0.125003 4 0.125004
0.375017 4 -0.125005 0.375018 4 0.281256 0.28126 4 -0.281257 0.28126
4 0.312507 0.250008 4 -0.312507 0.250008 4 0.250006 0.312512 4
-0.250007 0.312512 4 -0.187507 0.356711 4 -0.406254 0 4 -0.375005
0.156254 4 0.406257 0 4 0.375007 0.156254 4 0.156254 0.375016
4 -0.156256 0.375017 4 -2.07883e-07 0.40627 4 -0.406254 0.0312508 4
0.406257 0.0312507 4 -0.343756 0.218757 4 0.343757 0.218756 4 0.218756
0.343763 4 -0.218757 0.343764 4 0.0312509 0.40627 4 -0.0312514 0.40627
4 -0.406254 0.0625015 4 0.406257 0.0625015 4 0.0625019 0.406269 4
-0.0625026 0.40627 4 0.343757 0.226278 4 -0.406254 0.0937522 4 0.406257
0.0937522 4 0.0937527 0.406268 4 -0.0937538 0.406269 4 -0.375006 0.187505
4 0.375007 0.187505 4 0.187505 0.375015 4 -0.187507 0.375016 4
0.312506 0.281259 4 -0.312507 0.281259 4 0.281256 0.31251 4 -0.281258
0.312511 4 -0.218757 0.362686 4 -0.406255 0.125003 4 0.406257 0.125003
4 0.343757 0.250007 4 -0.343757 0.250008 4 0.250006 0.343762 4
-0.250008 0.343763 4 0.125003 0.406267 4 -0.125005 0.406269 4 -0.375006
0.218756 4 0.375006 0.218756 4 0.218755 0.375014 4 -0.218757 0.375015
4 0.375006 0.220884 4 -0.406255 0.156254 4 0.406257 0.156254 4
0.156254 0.406266 4 -0.156256 0.406268 4 -0.437504 0 4 0.437507
0 4 -4.97918e-07 0.43752 4 -0.437504 0.0312506 4 0.437507 0.0312506
4 0.0312506 0.43752 4 -0.0312516 0.43752 4 -0.437504 0.0625013 4
0.437506 0.0625013 4 0.312506 0.312509 4 -0.312508 0.31251 4 0.0625015
0.437519 4 -0.0625028 0.43752 4 0.343756 0.281258 4 -0.343757 0.281258
4 0.281256 0.343761 4 -0.281258 0.343762 4 -0.250008 0.367245 4
0.388542 0.218755 4 -0.437504 0.0937519 4 -0.406255 0.187504 4 0.437506
0.0937519 4 0.406256 0.187504 4 0.187504 0.406265 4 -0.187507 0.406267
4 0.0937523 0.437518 4 -0.093754 0.43752 4 0.375006 0.250006 4
-0.375006 0.250007 4 0.250005 0.375013 4 -0.250008 0.375014 4 -0.437504
0.125003 4 0.437506 0.125003 4 0.125003 0.437517 4 -0.125005 0.437519
4 0.406256 0.215628 4 -0.406256 0.218755 4 0.406256 0.218755 4
0.218755 0.406264 4 -0.218758 0.406266 4 -0.437504 0.156253 4 0.437506
0.156253 4 0.343756 0.312508 4 0.312506 0.34376 4 -0.343757 0.312509
4 -0.312508 0.343761 4 0.156253 0.437516 4 -0.156256 0.437518 4
-0.281258 0.370302 4 -0.468753 0 4 0.468756 0 4 0.375006
0.281257 4 -0.375007 0.281257 4 0.281255 0.375011 4 -0.281258 0.375013
4 -7.52289e-07 0.46877 4 -0.468753 0.0312506 4 0.468756 0.0312505 4
0.0312503 0.46877 4 -0.0312518 0.46877 4 -0.468753 0.0625011 4 0.468756
0.0625011 4 0.0625012 0.468769 4 -0.062503 0.46877 4 -0.437505 0.187504
4 0.437506 0.187504 4 0.187504 0.437515 4 -0.187507 0.437517 4
0.406256 0.250005 4 -0.406256 0.250006 4 0.250005 0.406263 4 -0.250008
0.406265 4 -0.468753 0.0937516 4 0.468756 0.0937516 4 0.0937519 0.468768
4 -0.0937541 0.468769 4 -0.468753 0.125002 4 0.468756 0.125002 4
0.125003 0.468767 4 -0.125005 0.468769 4 0.437506 0.210501 4 -0.312508
0.371724 4 0.343755 0.343759 4 -0.343758 0.34376 4 0.375006 0.312507
4 -0.375007 0.312508 4 0.312505 0.37501 4 -0.312508 0.375012 4
-0.437505 0.218754 4 0.437506 0.218754 4 0.218754 0.437514 4 -0.218758
0.437516 4 -0.468754 0.156253 4 0.468756 0.156253 4 0.406256 0.281256
4 -0.406256 0.281257 4 0.281255 0.406262 4 -0.281258 0.406263 4
0.156253 0.468766 4 -0.156256 0.468768 4 -0.500002 0 4 0.500006
0 4 -9.63934e-07 0.50002 4 -0.500002 0.0312505 4 0.500006 0.0312505
4 0.03125 0.500019 4 -0.031252 0.50002 4 -0.500003 0.0625009 4
0.500006 0.0625009 4 -0.437505 0.250005 4 0.437506 0.250005 4 0.250004
0.437513 4 -0.250008 0.437515 4 0.0625008 0.500019 4 -0.0625031 0.500019
4 -0.468754 0.187503 4 0.468756 0.187503 4 0.187503 0.468765 4
-0.187507 0.468767 4 -0.343758 0.371295 4 -0.500003 0.0937514 4 0.500005
0.0937514 4 0.375005 0.343758 4 0.343755 0.375009 4 -0.375007 0.343759
4 -0.343758 0.37501 4 0.0937516 0.500018 4 -0.0937542 0.500019 4
0.468755 0.205624 4 0.406255 0.312506 4 -0.406257 0.312507 4 0.312505
0.40626 4 -0.312508 0.406262 4 -0.500003 0.125002 4 0.500005 0.125002
4 0.125002 0.500017 4 -0.125005 0.500019 4 -0.468754 0.218754 4
0.468755 0.218754 4 0.218754 0.468764 4 -0.218758 0.468766 4 0.437505
[...]
POINT_DATA 4972
FIELD attributes 1
U 3 4972 float
20 0 0 20 0 0 6.17084 2.4467 0.954165 20 0
0 4.74932 2.52653 0.666957 7.86441 2.42724 0.963078 20 0 0
2.94808 2.88141 1.02986 20 0 0 4.21446 2.69777 0.349455 2.81033
2.87295 0.709936 3.28521 2.92917 1.22544 8.69278 2.18063 0.719645 2.8748 2.92585
0.448585 3.6304 2.89898 1.14833 20 0 0 2.02889 2.78522 0.888335
20 0 0 4.2805 2.83288 0.163408 2.07171 2.83228 0.636838 8.19349
1.65464 0.401423 2.03188 2.77519 1.06419 3.11705 2.98785 0.289384 2.222 2.91373
0.41037 3.65867 2.71458 0.838888 1.97779 2.75264 1.06898 20 0 0
20 0 0 1.55335 2.43159 0.797027 4.59358 2.88618 0.073332 6.65463
1.09624 0.0881993 1.64608 2.54569 0.5658 1.46812 2.34015 0.954947 2.50043 2.99771
0.252304 1.78425 2.65883 0.876959 3.48542 3.01585 0.219268 1.83809 2.67849 0.334296
3.23523 2.41573 0.410761 1.29336 2.24092 0.97579 20 0 0 2.89326
3.05633 0.169765 2.17774 2.8077 0.150029 20 0 0 1.45014 2.45761
0.530692 1.00915 2.0802 0.825253 1.16435 1.95162 0.767911 5.0005 2.85119 0.0290846
5.10248 0.713443 -0.141071 1.28721 2.12835 0.529965 1.04099 1.7772 0.928263 3.92515
2.99264 0.212311 2.5203 2.07722 0.0190576 1.5189 2.30877 0.277638 0.842281 1.57837
0.955729 2.66223 2.91604 0.0254519 0.743393 1.82094 0.533716 3.36144 3.07514 0.152857
1.93209 2.48035 0.0557747 1.08581 2.14855 0.161336 0.639584 1.31655 0.82548 20
0 0 20 0 0 0.768084 1.44261 0.804343 5.40084 2.72972
0.0140399 4.37723 0.614543 -0.2399 0.901713 1.66152 0.552446 0.649499 1.20992 0.97332
4.37469 2.9121 0.248519 1.85969 1.78316 -0.21274 1.15836 1.875 0.276288 0.53326
0.933115 1.01233 3.25563 2.99614 -0.0450607 2.53979 2.63351 -0.12395 0.660799 1.47951
0.235225 0.640198 0.978682 0.586975 3.86311 3.04848 0.183209 0.866283 1.80947 -0.0635398
1.62859 2.07485 0.0166009 0.586802 0.589352 0.920251 20 0 0 20
0 0 0.350683 0.946457 0.890594 5.66276 2.53008 0.032773 4.65385 0.787843
-0.226602 3.31066 2.76732 -0.268293 0.923667 0.610077 0.376047 0.463103 1.18619 0.62467
0.304765 0.681452 1.07472 3.91435 3.04468 -0.0749253 0.798719 1.13925 0.0914368 2.34279
2.2553 -0.21821 0.991041 0.192847 0.762912 4.74105 2.77388 0.305381 1.63834 1.58057
-0.251202 0.717317 1.4154 0.328278 0.389828 0.358178 1.14662 4.35592 2.97468 0.225365
0.982133 1.49165 -0.0530627 1.20595 1.62838 0.0374695 0.812159 -0.0345065 1.12688 4.19188
2.882 -0.387901 3.28246 2.41868 -0.439069 1.33527 0.30286 0.311662 1.61421 -0.173498
0.644797 20 0 0 20 0 0 -0.0605555 0.477843 1.00431
5.63151 2.2829 0.102083 4.60286 3.05681 -0.0941238 6.26255 0.800442 -0.054484 1.17331
0.840479 0.183753 1.9726 1.81969 -0.243433 1.61914 -0.447498 1.07234 -0.0096041 0.717605
0.725686 0.031961 0.206695 1.21474 4.93563 2.58527 0.348514 2.44974 1.05157 0.0253874
0.208411 0.94687 0.416724 0.389801 -0.131957 1.34335 4.3958 2.56821 -0.660729 2.14587
-0.411903 0.628839 4.81696 2.8573 0.225157 1.83078 0.857635 0.391551 0.669545 1.16134
0.106143 1.17326 -0.529575 1.41822 5.12957 2.97184 -0.503198 1.78729 0.100068 0.426898
3.01569 1.99131 -0.531429 2.45985 -0.760569 1.03628 5.31161 3.03079 -0.153503 1.97865
0.420234 0.64004 1.41998 1.35371 -0.205307 2.25284 -0.899942 1.46338 20 0
0 20 0 0 -0.42277 0.0428398 1.1189 5.22901 2.06499 0.198634
8.87557 0.126556 0.598616 -0.462793 0.262575 0.829926 -0.158514 -0.207197 1.36444 4.95134
2.37601 0.321495 4.44896 -0.0708079 1.16292 5.61268 2.70034 -0.90148 2.53889 -0.498196
0.688729 4.3013 2.14724 -0.85045 3.00798 -0.905836 1.02109 -0.304137 0.47786 0.517994
0.460189 -0.521023 1.56274 1.08788 -0.734756 1.6613 0.47267 -0.56852 1.59364 1.45902
-0.837385 1.69357 6.09412 3.02662 -0.646751 2.39914 -0.0272945 0.711906 2.46994 1.52424
-0.539058 3.19314 -1.1313 1.46505 5.26594 2.70962 0.116498 3.30927 -0.103582 1.53554
0.09649 0.685895 0.201781 1.49126 -0.872107 1.72464 -0.208346 -0.36554 1.41888 2.54245
-1.07322 1.69928 -0.617805 -0.252671 1.18161 3.41858 -1.21528 1.60014 6.06284 2.9699
-0.314473 3.08141 -0.011386 1.41111 2.69787 -1.16621 1.82588 0.772893 0.87513 -0.121688
5.76813 2.28627 -1.22363 3.40709 -0.91806 0.956104 20 0 0 20
0 0 6.86775 2.80064 -1.17193 3.01377 -0.436746 0.724129 3.80727 1.67779
-0.927277 3.82408 -1.21554 1.37338 -0.682325 -0.350429 1.20235 -0.789613 -0.193716 0.947937
4.67651 1.96844 0.203601 9.19238 -0.716348 1.55267 -0.266713 -0.550999 1.48265 -0.80657
-0.168947 0.907727 -0.810009 -0.186516 0.908032 3.97955 -1.2519 1.4059 4.96283 2.1931
0.152549 5.27836 -0.989185 2.39962 0.532968 -0.797973 1.74291 -0.696117 0.0206002 0.602903
7.09252 3.04148 -0.860718 3.18901 0.00526853 0.983186 3.73934 -1.33477 1.79234 1.73634
1.04263 -0.473633 5.77501 2.55064 -0.151934 4.17622 -0.599938 2.29808 1.6886 -1.06355
1.95886 -0.354464 0.216586 0.293706 4.39682 -1.22413 1.15008 -0.717154 -0.133369 0.609523
4.45601 -1.21664 1.11032 7.33544 2.39444 -1.65131 4.0324 -0.826491 0.734627 5.40068
1.81662 -1.40227 4.48708 -1.22548 1.11489 6.89243 2.87421 -0.617463 3.90137 0.00332049
1.5989 2.97942 -1.27678 2.05366 0.22189 0.401766 -0.0253701 8.12405 2.8558 -1.47807
3.77143 -0.222404 0.570132 4.66217 -1.41153 1.54869 2.98775 1.19532 -0.886029 20
0 0 20 0 0 -0.749992 -0.688273 1.21238 4.43696 1.94843
0.00945652 6.31763 -1.50071 1.6543 -0.271058 -0.811828 1.5178 -0.883392 -0.561411 0.914541
-0.405262 -0.07221 0.316127 5.22935 -1.10634 0.656245 5.21403 2.03636 -0.184149 8.14853
3.00971 -1.18202 4.58706 -1.30565 2.01636 4.05613 0.303655 0.710892 4.25166 -1.40918
1.9161 1.03589 0.566836 -0.371203 0.605239 -0.957876 1.81493 -0.754422 -0.40614 0.621249
5.56905 -1.18576 0.633999 7.19961 1.92877 -1.96664 6.40679 2.3788 -0.570813 4.34861
-0.431926 1.45518 8.92047 2.45335 -2.10369 5.13795 -0.660845 0.268989 5.84516 -1.45378
1.05702 4.52346 1.3423 -1.39425 1.82375 -1.11563 2.04226 -0.432233 -0.225546 0.328032
0.0600193 -0.00896826 0.0244498 9.37628 2.86272 -1.83389 4.9546 0.06403 0.0176566 5.66692
-1.49772 1.48559 2.09815 0.719272 -0.767937 7.79273 2.72934 -1.05304 4.52555 0.371055
0.566916 3.26095 -1.25003 2.08077 0.0457083 -0.045282 0.0288545 6.35802 -0.919887 0.0594157
0.268226 0.011961 -0.0825435 20 0 0 20 0 0 -0.435688
-0.938993 1.09186 4.66075 1.83135 -0.314749 4.5057 -2.21914 0.646639 7.19034 -1.0966
-0.0835541 9.13009 1.99014 -2.57028 7.51611 -1.44755 0.323386 6.34262 1.47917 -2.00644
-0.0677566 -0.963415 1.40995 -0.422974 -0.883458 0.79272 9.23605 2.91005 -1.61028 5.18355
0.610654 -0.309422 4.90965 -1.35583 1.81746 0.679345 0.117722 -0.28836 5.71168 1.83498
-0.608476 4.63496 -1.35783 0.405803 0.750029 -0.98709 1.7174 -0.176985 -0.775886 0.513726
10.4459 2.46427 -2.53836 6.81204 -0.496225 -0.481802 7.4762 -1.56153 0.772983 3.42411
0.874577 -1.24266 0.731203 0.0432403 -0.287847 7.09585 2.15177 -1.05272 4.95842 -0.213713
-0.281604 1.9948 -1.02629 1.92778 0.163645 -0.623071 0.24665 7.82962 -0.693883 -0.695181
10.6 2.8157 -2.23951 6.67822 0.220375 -0.941696 6.8983 -1.45086 1.23317 1.497
0.269078 -0.640975 8.63513 2.50303 -1.54198 5.61804 0.542195 -1.0033 3.64052 -1.08508
1.90793 0.539114 -0.455307 -0.0167339 9.62623 -1.35996 -0.60515 8.43739 1.57536 -2.6752
9.25983 -0.971694 -0.995087 11.0617 1.99012 -3.12011 9.72672 -1.5547 -0.175594 5.04606
1.03849 -1.80267 1.50318 0.0969759 -0.612567 20 0 0 10.1933 2.71363
-2.07279 20 0 0 6.89011 0.611767 -1.60969 5.73817 -1.17348 1.57215
0.96757 -0.296242 -0.285508 0.584602 -1.0468 0.784798 5.08439 1.50336 -0.6049 4.85283
-2.42013 -0.537466 11.8388 2.45512 -2.92377 8.97462 -0.404354 -1.45315 9.26969 -1.52743
0.374619 2.53968 0.425366 -1.04349 0.602162 -0.961981 1.1103 0.894056 -1.08354 0.491637
6.23166 1.52394 -0.989482 5.60341 -1.33984 -1.14311 1.13356 -0.861256 1.42176 1.29495
-1.05282 0.2405 9.59671 -0.508374 -1.58192 7.6442 1.83281 -1.46983 6.30948 -0.272584
-1.85332 2.25771 -0.784964 1.62957 1.63133 -0.958106 0.0174609 11.6547 2.68846 -2.63934
8.92155 0.154302 -2.06365 8.28361 -1.2872 0.94092 1.51194 -0.146377 -0.572397 11.9395
-1.19043 -1.61996 10.7363 1.58994 -3.30443 12.2388 -1.43068 -1.26183 7.02498 1.18289
-2.41173 2.36311 0.171307 -0.946402 9.17854 2.18324 -1.94675 7.41754 0.342884 -2.39254
11.5593 -0.83654 -1.98817 12.8034 1.97965 -3.52517 11.849 -1.53251 -0.687963 3.85945
0.598594 -1.49619 4.02782 -0.774939 1.62243 1.86834 -0.824324 -0.191978 12.995 2.42122
-3.22758 11.3951 -0.38995 -2.48879 10.9375 -1.39707 0.10081 2.24807 0.00576537 -0.883145
11.5609 -0.412142 -2.51918 10.7298 2.41643 -2.42462 9.15336 0.344801 -2.79713 6.50717
-0.852859 1.34979 2.06278 -0.678277 -0.394921 20 0 0 20 0
0 2.61468 -0.983711 0.319267 5.44409 0.976414 -0.771467 5.66007 -2.03822 -1.34298
2.11658 -0.782481 0.648483 3.25283 -1.14224 0.039219 6.56019 1.10626 -1.22988 6.92119
-1.24617 -2.23282 14.6729 -1.19227 -2.32641 9.40644 1.2448 -3.00518 2.07805 -0.567338
0.970728 3.75479 -1.22841 -0.172677 14.1675 -0.983048 -2.58199 13.0085 1.55872 -3.78035
14.35 -1.40014 -1.83623 5.5433 0.76933 -1.9709 3.39668 0.277956 -1.28236 12.3844
-0.39924 -2.88942 7.86506 1.45088 -1.71404 12.2325 2.45617 -2.89843 8.07762 -0.450887
-2.98001 11.3879 -0.0269757 -3.1162 9.48168 -0.980698 0.854542 2.32247 -0.53154 -0.600364
2.7315 -0.383186 1.21326 4.00363 -1.22593 -0.335658 13.829 -0.715803 -2.93506 14.1737
2.00548 -3.75091 13.0267 -1.43988 -0.878856 3.24358 0.17188 -1.21162 9.24134 1.82752
-2.14521 9.55316 -0.00351743 -3.44081 4.22622 -0.287283 1.30592 4.02732 -1.14875 -0.472723
13.4497 -0.372929 -3.38394 13.6455 2.30002 -3.35314 13.6789 -0.411399 -3.41371 11.8937
-1.08496 0.227389 2.75588 -0.384545 -0.814252 10.6512 2.08766 -2.53968 11.4199 0.00343366
-3.7177 16.6496 -0.928816 -3.18426 16.6264 -1.11349 -2.88992 12.0783 1.21719 -3.52069
7.70905 0.876976 -2.43065 6.62942 -0.305392 1.22901 3.94665 -1.02525 -0.59567 4.72109
0.406842 -1.60101 20 0 0 20 0 0 16.0594 -0.811518
-3.37311 14.8829 1.57461 -4.02757 14.4767 -1.33082 -1.96331 4.57516 0.342505 -1.53535
5.73453 -0.78491 -0.201454 5.61983 0.364303 -0.809002 6.36654 -1.19476 -1.72699 4.69364
-0.464529 0.139411 6.67276 -1.09144 -0.479823 6.62325 0.650748 -1.3004 8.00701 -0.88768
-2.80431 3.94199 -0.153823 0.475104 7.19715 -1.3246 -0.656372 12.0943 2.1705 -2.90281
13.404 -0.231878 -3.88966 9.61353 -0.345039 1.01361 3.92383 -0.880698 -0.716502 15.6807
-0.646547 -3.67961 14.9193 1.99738 -3.74372 12.3952 -1.09156 -0.579012 3.4354 -0.233931
-1.02668 7.75291 1.09069 -1.75582 9.49366 -0.483833 -3.57347 3.80039 0.122019 0.753615
7.23093 -1.42939 -0.749901 8.92107 1.53661 -2.118 11.0552 -0.250577 -3.95892 4.49179
0.323261 0.943873 6.91518 -1.40868 -0.799529 14.6871 -0.425112 -3.97034 6.50976 0.519274
-1.89463 18.3062 -0.816537 -3.59134 10.402 0.889184 -2.87769 17.8979 -0.773693 -3.71143
14.644 1.19838 -3.88634 16.3097 -1.03945 -3.00442 6.36876 0.477218 -1.83161 13.5219
2.09164 -3.22533 15.1476 -0.494456 -3.99929 11.4533 -0.316856 0.62062 4.09326 -0.734145
-0.84593 10.1408 1.83779 -2.42153 12.6367 -0.268585 -4.10304 17.2582 -0.756497 -3.85936
15.9059 1.62301 -3.97471 12.0898 -0.999912 -1.64999 4.40888 -0.0798478 -1.21214 6.10899
0.429025 1.04801 6.49251 -1.30077 -0.834122 20 0 0 20 0
0 9.82544 -0.491658 -0.633465 5.59291 -0.230008 -0.762225 6.63846 -0.110079 -1.74142
8.22488 -0.0745207 -0.263624 11.0956 -0.942101 -0.938507 6.49225 0.234852 -1.24235 8.24392
-0.255909 -2.78577 14.8305 1.89451 -3.48365 16.4738 -0.702992 -4.02884 10.6166 -0.22023
-0.177884 4.5106 -0.597634 -0.970047 6.79748 0.293311 0.077481 11.5384 -1.31624 -1.08997
11.4445 1.94456 -2.68795 14.0403 -0.449315 -4.10385 8.38425 0.551698 1.06212 6.20041
-1.14916 -0.877934 8.96411 0.585546 -2.23004 7.48811 0.815918 -1.64856 9.66964 -0.285469
-3.47333 19.0366 -0.69792 -3.85284 18.4109 -0.716426 -3.67 13.4281 0.876384 -3.31895
8.77007 0.544572 -2.14264 5.85088 0.620736 0.353239 11.1355 -1.50467 -1.10466 14.6815
-0.584282 -4.0609 18.3486 -0.788683 -3.90108 16.3132 1.24912 -3.94903 13.675 -0.813805
-2.75403 5.76248 0.0663528 -1.35297 8.5298 1.3608 -1.94096 10.9806 -0.342383 -3.74761
5.58066 0.900754 0.560891 10.3081 -1.511 -1.06291 12.8006 1.89907 -2.91726 15.146
-0.68207 -4.02977 9.72176 0.773868 0.778746 6.18611 -0.994095 -0.947179 17.3936 -0.853147
-3.96924 15.9083 1.6216 -3.63844 9.41584 -0.159852 -1.37201 5.16185 -0.469374 -1.05222
9.62841 1.71193 -2.17059 12.1442 -0.502027 -3.78327 6.07007 1.12733 0.72217 9.50124
-1.39799 -1.02148 12.154 0.650614 -2.70967 19.5046 -0.596494 -3.83811 11.8296 0.593137
-2.55456 20 0 0 20 0 0 14.1061 1.76536 -3.09316
15.983 -0.894157 -3.91818 9.00416 0.980557 -0.0816971 6.44804 -0.866135 -1.02054 14.1352
-0.195003 -0.893038 5.44617 -0.748003 -0.683906 6.30322 0.964234 -1.46853 19.0719 -0.764423
-3.82636 17.0882 -0.533487 -3.5243 15.9925 0.915264 -3.61442 7.69239 0.187906 -1.51329
12.1139 0.239864 -0.465151 15.6356 -0.671664 -1.25456 10.7957 1.83692 -2.37101 13.143
-0.735389 -3.70691 7.1449 1.36712 0.80342 9.01192 -1.23291 -1.01314 6.29128 -0.0995273
-1.11414 7.51649 0.416446 -2.26366 10.2405 0.616019 -0.118291 15.8203 -1.04527 -1.38107
18.0631 -0.93574 -3.84295 16.6616 1.31777 -3.6573 10.9646 -0.202197 -2.50043 6.05424
-0.331334 -1.06828 13.5373 -0.840051 -3.66305 7.24626 0.629636 -1.46107 8.64316 -0.0246168
-2.8032 8.78773 0.961339 0.119409 14.8637 -1.20469 -1.30853 15.4597 0.742588 -3.26012
8.28665 1.27212 -1.69313 12.0225 1.80607 -2.5492 9.73387 -0.411751 -3.0138 14.0375
-0.972811 -3.60741 7.95048 1.68686 0.55758 7.88302 1.28439 0.270676 8.94497 -1.07564
-1.05365 13.6275 -1.20038 -1.18662 16.6713 -1.05082 -3.7847 15.244 1.58297 -3.19623
8.2654 0.983435 -1.29525 6.86244 -0.770221 -1.04748 19.6062 -0.674467 -3.70378 19.4748
-0.401121 -3.7483 15.1405 0.639102 -3.04778 10.4738 0.324874 -1.83934 9.3828 1.67384
-1.86955 10.799 -0.767109 -3.05835 7.52654 1.58411 0.376135 12.6697 -1.10882 -1.09712
18.6606 -0.935543 -3.67537 17.0915 1.01733 -3.52828 15.3348 -0.127814 -3.28041 7.40009
-0.169923 -1.08392 13.2605 1.70264 -2.68935 14.9024 -1.16143 -3.52554 8.00845 1.92746
-0.216277 9.18153 -0.968502 -1.11429 20 0 0 20 0 0
17.0336 -0.0651224 -1.02079 17.1343 0.922391 -3.43187 5.27316 -1.16764 -0.583038 10.4904
1.82302 -2.02561 5.58032 1.80792 -1.03331 11.865 -1.06974 -3.05628 17.3195 -1.13627
-3.64325 16.1537 1.37188 -3.21308 9.92682 0.685513 -2.32203 7.62566 1.86959 0.405237
7.3191 -0.664184 -0.985916 15.058 0.245637 -0.54358 12.2236 -0.98218 -1.06973 18.5144
-0.364293 -1.41416 6.09246 -0.342019 -0.942425 6.33378 0.902901 -1.53323 13.3136 0.547481
-0.193102 18.5164 -0.535951 -1.49527 12.2271 -1.14401 -3.05915 7.07731 0.510761 -1.23099
7.20022 0.118792 -1.93506 11.9784 0.870709 0.00366286 17.4249 -0.554685 -1.36049 14.4237
1.57604 -2.77343 15.7466 -1.28305 -3.44957 8.44219 1.83379 -1.24964 9.44268 -0.918355
-1.12922 11.6008 1.81004 -2.17475 12.9509 -1.29248 -3.06488 19.984 -0.487143 -3.55519
14.1186 0.410527 -2.40451 7.9779 2.14597 0.171774 12.2762 -0.874937 -1.10362 16.9113
1.12091 -3.22563 8.20235 1.22654 -1.41518 8.31414 -0.549092 -2.15146 19.2383 -0.847879
-3.48656 19.0848 -0.0618222 -3.55067 17.2179 0.73692 -3.24353 9.69068 0.0503475 -1.28957
11.0883 1.21198 0.090131 16.354 -0.52372 -1.21161 16.7986 1.16868 -3.15245 17.9619
-1.14327 -3.48262 16.864 1.14806 -3.1463 14.4463 0.451273 -2.97493 8.01869 -0.495306
-0.885441 9.39335 1.66973 -1.55564 9.65447 -1.04053 -2.30912 10.5566 1.54307 0.120428
15.7207 -0.491028 -1.10421 12.7245 1.72721 -2.30155 14.0354 -1.43102 -3.07889 8.67
2.26998 -0.437759 12.5742 -0.824894 -1.16291 16.5426 -1.34145 -3.36195 15.4241 1.43304
-2.78834 10.7629 1.36486 -2.10175 9.48902 -0.858076 -1.03209 10.5467 1.84688 -1.68214
11.0675 -1.35428 -2.44834 10.3678 1.82087 0.0899947 15.5937 -0.457032 -1.05708 20
0 0 20 0 0 18.2913 -0.145701 -1.02559 5.10925 -1.47485
-0.445222 4.80541 2.31949 -0.530743 16.7019 -0.0201054 -0.57927 19.6098 -0.198143 -1.36575
15.6883 1.38076 -2.77151 11.4445 -1.40525 -2.4825 5.91038 -0.502421 -0.731992 5.13683
1.15379 -0.757942 19.757 -0.6673 -3.27791 20.1947 -0.197086 -3.34801 17.0808 0.488618
-2.82269 13.3056 0.19412 -1.81921 15.5213 0.14823 -0.254726 19.7598 -0.14172 -1.40067
18.5932 -1.06897 -3.29536 17.4435 0.914483 -2.99625 18.7604 0.35104 -3.21264 9.68731
-0.221177 -0.964869 15.1815 1.47025 -2.62405 6.95057 0.439563 -0.97172 5.76635 0.101373
-1.03812 13.8346 1.62947 -2.38182 15.0603 -1.50203 -3.0756 10.2703 2.05339 -1.21247
14.8221 0.380514 -0.0829016 12.6847 -0.829046 -1.17645 19.0981 -0.0476854 -1.28222 11.626
1.85822 -1.81261 12.4142 -1.53639 -2.57037 10.7021 2.0047 -0.111785 15.848 -0.443873
-1.06697 8.18824 1.19679 -1.12525 6.96024 -0.772767 -1.27649 17.2811 -1.34243 -3.24776
16.238 1.272 -2.7365 15.146 0.935181 -2.60998 9.55435 -0.69925 -0.855889 14.5104
0.664593 -0.0187797 18.536 0.000746666 -1.17424 14.3508 1.57427 -2.39249 9.51965 1.66163
-1.24756 8.73496 -1.32002 -1.5846 14.4186 0.958054 -0.00773579 18.333 0.00337302 -1.07205
13.7591 1.67524 -2.20452 12.6634 1.79982 -1.93476 13.6427 -1.62868 -2.66059 11.8613
2.01031 -0.546786 16.1615 -0.461837 -1.10439 14.855 1.52035 -2.40291 15.985 -1.52721
-3.04287 13.2592 1.56942 -1.83432 12.2933 -0.803841 -1.06058 20.1501 -0.408312 -3.03372
16.902 0.260746 -2.35405 13.033 1.7719 -1.96558 19.1923 -0.907057 -3.07868 20.2852
0.129533 -3.048 17.9405 0.679593 -2.76015 13.0536 -0.0287211 -1.39775 10.7989 1.85941
-1.36127 10.6456 -1.57594 -1.88763 14.5554 1.20424 -0.0402381 18.449 -0.0185682 -0.998639
12.7482 1.81669 -1.84708 20 0 0 20 0 0 17.9722
-1.2797 -3.10109 16.9258 1.09201 -2.62762 18.9858 0.687061 -2.7889 10.6373 -0.411349
-0.837965 19.1146 -0.302463 -0.918538 11.1597 -1.60988 -1.95833 4.97583 -1.66289 -0.280345
4.13862 2.45391 0.018041 17.9982 -0.286183 -0.56916 20.0923 -0.202859 -1.15669 5.74438
-0.597587 -0.49575 4.09786 1.20579 0.0447354 17.33 -0.199377 -0.296434 20.3656 -0.0362322
-1.17072 11.9019 1.88982 -1.53127 13.6804 1.72299 -2.01958 14.7407 -1.66511 -2.70754
13.973 1.78138 -1.08569 16.0511 -0.481737 -1.11523 11.5893 1.88403 -1.44501 6.82793
0.397023 -0.695272 4.47411 -0.0480935 -0.103737 17.1737 -0.0453716 -0.139208 20.1596 0.0818398
-1.11442 10.8885 1.85229 -1.26894 11.9491 1.89523 -1.48313 12.2934 -1.68472 -2.11424
16.8092 -1.51717 -2.97453 15.721 1.39263 -2.36768 17.0461 1.15653 -2.2014 15.1815
1.37297 -0.184963 11.848 -0.651477 -0.851507 18.7132 -0.0625699 -0.967341 9.60115 1.64103
-1.05013 7.68795 0.891153 -0.784821 8.16645 1.1673 -0.853929 6.80967 0.39266 -0.657668
5.70365 -0.61054 -0.427831 4.94498 -1.69488 -0.217565 20 0 0 8.16489
1.16518 -0.834482 5.68179 -1.06071 -0.356745 17.3911 0.159435 -0.0705905 19.9495 0.139904
-1.06739 19.7158 -0.663935 -2.8267 20.3685 -0.124267 -2.7429 18.4082 0.449147 -2.45905
16.9526 0.033482 -1.93147 14.6396 1.62927 -2.05326 15.7144 -1.67108 -2.71261 16.6918
1.44673 -1.52997 15.3016 -0.437934 -1.00827 9.63995 1.63122 -0.956156 12.9837 1.86357
-1.60355 7.92527 -1.5863 -0.83754 13.6265 -1.73217 -2.26056 18.6187 -1.14036 -2.9193
17.5667 0.899011 -2.46636 20.3436 0.392984 -2.67281 16.4113 1.43627 -0.493791 13.6921
-0.221746 -1.15487 17.7861 0.388584 -0.0553398 18.895 -0.109268 -0.959097 19.9099 0.153407
-0.987299 17.5551 -1.46256 -2.86913 16.4446 1.24544 -2.28771 19.6597 0.861062 -2.34503
12.6394 -0.407596 -0.795874 11.0771 1.83729 -1.0745 10.4346 -1.72257 -1.33401 18.266
0.617479 -0.08937 19.9978 0.131555 -0.912541 20 0 0 20 0
0 19.9009 -0.395014 -0.758739 11.371 -1.72861 -1.49268 4.88996 -1.75194 -0.105578
13.9376 1.80795 -1.6964 3.71361 2.26067 0.575089 14.7377 -1.75235 -2.34215 17.9671
1.37225 -0.89323 19.3309 -0.410255 -0.525152 18.731 -0.117217 -0.957802 20.3556 -0.255779
-0.900514 5.59689 -0.644493 -0.249795 3.33856 1.11799 0.823545 15.4807 1.51206 -2.03742
16.5785 -1.65755 -2.67727 19.067 1.16182 -1.80946 19.0159 -0.331349 -0.317422 14.7608
-0.315042 -0.827044 20.505 -0.0893584 -0.925551 12.3566 1.89079 -1.19936 12.4137 -1.73535
-1.66936 18.8745 0.832642 -0.217088 20.0955 0.087909 -0.868708 6.6918 0.364495 -0.414897
3.5208 -0.228074 0.809672 20.1014 -0.378496 -2.5429 18.889 0.22124 -2.12439 19.0566
-0.186113 -0.185437 20.4783 0.00477759 -0.928999 19.2076 -0.922556 -2.69975 20.441 0.114084
-2.42403 18.2029 0.698307 -2.25901 17.4637 -0.16851 -1.58879 8.09528 1.11688 -0.549194