# vtk DataFile Version 2.0
sampleSurface
ASCII
DATASET POLYDATA
POINTS 29622 float
-0.000626264 0.02 0 -0.000711655 0.02 0.0141674 0.0147896 0.02 0 -0.0159899 0.02
0 -0.00116012 0.02 0.0180502 -0.0155282 0.02 0.0128408 0.0125134 0.02 0.0160665
-0.00153405 0.02 0.0212859 -0.0157761 0.02 0.0167357 0.0119059 0.02 0.0199308 -0.0159829
0.02 0.0199816 0.0113994 0.02 0.0231511 0.0307112 0.02 0 -0.03158 0.02
0 -0.0313963 0.02 0.0122895 0.0322044 0.02 0.0100037 -0.0314347 0.02 0.0161643
-0.0314668 0.02 0.0193933 0.035056 0.02 0.01626 0.0338862 0.02 0.0221196 0.0329105
0.02 0.0270048 0.046561 0.02 0 -0.04742 0.02 0 0.0479306 0.02
0.0101734 -0.0474942 0.02 0.0127772 -0.0473299 0.02 0.0165239 -0.0471929 0.02 0.0196463
0.00924481 0.02 0.0516915 0.0494094 0.02 0.0183313 -0.0134021 0.02 0.0516237 0.0480848
0.02 0.0247778 0.00925064 0.02 0.0544086 0.0469797 0.02 0.0301574 -0.0134578 0.02
0.0549233 -0.0260141 0.02 0.0516224 0.00925771 0.02 0.0576651 0.0285421 0.02 0.0517212
-0.0335024 0.02 0.0503979 -0.0262833 0.02 0.0549314 0.0285517 0.02 0.0551565 -0.0338111
0.02 0.0524296 0.0624323 0.02 0 -0.0635513 0.02 0 0.0631854 0.02
0.0123018 -0.0341816 0.02 0.0548694 -0.0631422 0.02 0.0145995 -0.0627523 0.02 0.0179257
-0.0624271 0.02 0.0206975 0.0285632 0.02 0.0592835 -0.00839835 0.02 0.0658926 0.063721
0.02 0.0227067 -0.0482842 0.02 0.0478235 0.00967915 0.02 0.067425 0.0458271 0.02
0.0517467 -0.0226337 0.02 0.0654011 0.0630239 0.02 0.028683 -0.0486978 0.02 0.0509764
0.062443 0.02 0.0336742 0.0458203 0.02 0.055416 0.026845 0.02 0.0680903 -0.0491941
0.02 0.054759 -0.035021 0.02 0.0649161 0.0458122 0.02 0.0598276 -0.0191597 0.02
0.0732754 -0.00311666 0.02 0.077051 -0.00255422 0.02 0.0782358 0.0784938 0.02 0
0.00194428 0.02 0.0786012 -0.0636358 0.02 0.0466853 -0.0173222 0.02 0.0775525 -0.0765921
0.02 0.0224313 -0.00232999 0.02 0.0798271 -0.0772697 0.02 0.0204922 0.0788037 0.02
0.0139438 -0.0780823 0.02 0.0181648 -0.0802538 0.02 0 0.0124228 0.02 0.0794745
0.0621102 0.02 0.0517893 -0.0640599 0.02 0.0501172 0.044288 0.02 0.0683138 -0.0503008
0.02 0.0642321 0.07854 0.02 0.0258466 0.0621029 0.02 0.0552551 -0.0333233 0.02
0.0767836 -0.0333103 0.02 0.0768858 -0.0334615 0.02 0.0768769 -0.0332875 0.02 0.077004
0.0784374 0.02 0.0301441 0.0269021 0.02 0.0796185 -0.0645673 0.02 0.0542281 -0.0167508
0.02 0.0829226 0.0783517 0.02 0.0337218 0.0620941 0.02 0.059424 0.0435428 0.02
0.078852 -0.0787026 0.02 0.044501 -0.0656735 0.02 0.063512 0.0609156 0.02 0.0687538
-0.0521327 0.02 0.0759212 -0.0794839 0.02 0.0479436 0.0779046 0.02 0.0518514 0.0948037
0.02 0 -0.0158667 0.02 0.0942564 -0.000383487 0.02 0.0955942 -0.0804181 0.02
0.0520697 0.0951817 0.02 0.0152146 0.0779126 0.02 0.0570228 -0.0980541 0.02 0
0.0937075 0.02 0.0295273 0.0934653 0.02 0.0318318 0.0932639 0.02 0.033747 -0.0307605
0.02 0.0947054 0.0142616 0.02 0.0986948 0.0597441 0.02 0.0801689 -0.0909562 0.02
0.0419181 -0.0668854 0.02 0.075392 -0.0998412 0.02 0.016911 -0.0922551 0.02 0.0437855
0.0168196 0.02 0.100996 0.0269517 0.02 0.0992279 0.0450617 0.02 0.09251 0.07753
0.02 0.0682577 -0.0817634 0.02 0.0636401 -0.0938102 0.02 0.0460256 -0.0998281 0.02
0.0335224 0.0926972 0.02 0.0518158 -0.0507033 0.02 0.0933516 -0.00118864 0.02 0.107376
-0.0198713 0.02 0.105984 0.0930811 0.02 0.0549867 0.0322709 0.02 0.103383 -0.0471823
0.02 0.0993111 0.0611389 0.02 0.0920601 0.0757902 0.02 0.0815793 0.111368 0.02
0 -0.0819878 0.02 0.0758654 0.106626 0.02 0.033755 0.111677 0.02 0.015575
-0.0512522 0.02 0.100983 -0.0693622 0.02 0.0901735 0.0443505 0.02 0.105441 -0.114433
0.02 0 0.0941685 0.02 0.0681304 -0.098111 0.02 0.0626988 -0.115406 0.02
0.0159041 0.106639 0.02 0.0514943 0.077111 0.02 0.092559 0.062589 0.02 0.103095
-0.116732 0.02 0.0309014 -0.11361 0.02 0.0456422 -0.0830293 0.02 0.0904377 0.0620976
0.02 0.106128 0.0917701 0.02 0.0824748 -0.0692362 0.02 0.103597 -0.0157512 0.02
0.123653 -0.0981586 0.02 0.0769568 -0.0286459 0.02 0.121586 0.0616911 0.02 0.108642
-0.00135098 0.02 0.126852 0.127678 0.02 0 0.127681 0.02 0.0157497 0.0779179
0.02 0.103318 0.110542 0.02 0.067339 -0.129878 0.02 0 0.0135636 0.02
0.129698 -0.115046 0.02 0.0624473 -0.13025 0.02 0.0155149 0.0926218 0.02 0.0929193
0.127607 0.02 0.0317518 -0.0512544 0.02 0.12196 0.0769845 0.02 0.107826 -0.0979274
0.02 0.0912246 -0.130467 0.02 0.0307187 -0.0830669 0.02 0.105459 0.108343 0.02
0.0804684 0.076205 0.02 0.111591 0.033156 0.02 0.131508 0.0291973 0.02 0.132459
0.126891 0.02 0.0510967 -0.129316 0.02 0.0457947 -0.114159 0.02 0.077738 -0.0672405
0.02 0.121204 0.0915473 0.02 0.105188 0.0335813 0.02 0.13607 0.125156 0.02
0.064945 -0.12863 0.02 0.0610193 0.0903924 0.02 0.110214 0.108416 0.02 0.0927111
-0.0167998 0.02 0.141976 -0.00122092 0.02 0.143552 0.0443986 0.02 0.136994 0.144241
0.02 0 0.014292 0.02 0.143703 -0.0976212 0.02 0.106426 -0.033047 0.02
0.140708 -0.144999 0.02 0 0.144192 0.02 0.0157437 0.0894279 0.02 0.114412
-0.145097 0.02 0.0153857 -0.0822205 0.02 0.121736 0.123616 0.02 0.079756 -0.114272
0.02 0.0926863 0.14381 0.02 0.0316597 -0.0499473 0.02 0.138659 -0.14504 0.02
0.0306779 0.14253 0.02 0.0481078 0.109841 0.02 0.102812 -0.14452 0.02 0.0459283
-0.130173 0.02 0.0778439 -0.0659231 0.02 0.138019 0.140391 0.02 0.0629309 0.0619994
0.02 0.14141 0.1236 0.02 0.0935311 -0.11262 0.02 0.107019 -0.0971985 0.02
0.122314 -0.144037 0.02 0.0612498 0.0610269 0.02 0.144909 -0.00109627 0.02 0.157281
0.112365 0.02 0.110111 -0.0169303 0.02 0.156556 0.0146763 0.02 0.15714 0.0303439
0.02 0.155927 -0.0330245 0.02 0.155701 0.138275 0.02 0.0797507 -0.129523 0.02
0.0935127 0.111013 0.02 0.115179 -0.160051 0.02 0 -0.0813649 0.02 0.138082
0.0598586 0.02 0.149119 -0.160049 0.02 0.0153647 0.161091 0.02 0 0.161419
0.02 0.0155742 0.109887 0.02 0.119403 -0.0491994 0.02 0.154789 0.124483 0.02
0.104644 0.0457774 0.02 0.156097 -0.143679 0.02 0.076667 -0.159941 0.02 0.0307111
0.0761826 0.02 0.145158 0.161411 0.02 0.0311713 -0.159648 0.02 0.0460564 -0.112328
0.02 0.122769 0.159875 0.02 0.0467547 -0.0650648 0.02 0.154354 0.0747878 0.02
0.150266 0.155991 0.02 0.0621477 -0.0966568 0.02 0.138348 0.137954 0.02 0.0972345
-0.12931 0.02 0.108561 0.125571 0.02 0.113477 -0.159317 0.02 0.0614462 0.124052
0.02 0.118682 0.152113 0.02 0.0801569 -0.000945772 0.02 0.171985 -0.144929 0.02
0.0933401 -0.0168136 0.02 0.171642 0.0148827 0.02 0.171926 0.0731134 0.02 0.156401
0.0602399 0.02 0.161942 0.122788 0.02 0.123016 -0.0806767 0.02 0.154269 0.0306552
0.02 0.171538 -0.0327603 0.02 0.171154 -0.175135 0.02 0 -0.175104 0.02
0.0153837 0.139708 0.02 0.10779 -0.159018 0.02 0.0769012 -0.127584 0.02 0.123127
0.177422 0.02 0 -0.0486967 0.02 0.170677 -0.175002 0.02 0.030773 -0.111953
0.02 0.138634 0.178245 0.02 0.0153881 0.0973805 0.02 0.151095 -0.144169 0.02
0.108886 -0.17481 0.02 0.0461761 0.0450262 0.02 0.175324 0.178976 0.02 0.0308584
0.1534 0.02 0.0975439 -0.0961491 0.02 0.154362 0.0752222 0.02 0.165707 -0.0644954
0.02 0.170392 0.171563 0.02 0.0625428 0.140548 0.02 0.117763 0.164921 0.02
0.0802817 0.177632 0.02 0.0464933 -0.15876 0.02 0.0924223 0.0956442 0.02 0.157102
-0.174576 0.02 0.0616128 0.138848 0.02 0.123066 -0.000797289 0.02 0.187164 0.137431
0.02 0.127484 -0.0166397 0.02 0.186993 0.015021 0.02 0.187152 0.0601932 0.02
0.178304 -0.0801553 0.02 0.170288 -0.127292 0.02 0.138895 0.0935604 0.02 0.164311
0.0308071 0.02 0.187002 -0.0324987 0.02 0.186723 0.109749 0.02 0.154715 -0.14375
0.02 0.124002 0.155561 0.02 0.108915 -0.190287 0.02 0 -0.111575 0.02
0.154522 -0.174341 0.02 0.0770964 -0.190252 0.02 0.0154145 0.192081 0.02 0
-0.0483322 0.02 0.186456 -0.190168 0.02 0.0308401 -0.159337 0.02 0.108678 0.192798
0.02 0.015142 0.107888 0.02 0.160863 0.0757736 0.02 0.179351 0.167558 0.02
0.0992129 -0.0957207 0.02 0.170305 -0.190031 0.02 0.046283 0.193359 0.02 0.0304075
0.186572 0.02 0.0617725 0.0451314 0.02 0.191407 0.154026 0.02 0.122375 -0.0640896
0.02 0.186272 -0.174121 0.02 0.0926298 0.191952 0.02 0.0458818 0.182046 0.02
0.0790949 0.105655 0.02 0.168241 0.152267 0.02 0.127652 -0.142678 0.02 0.139122
-0.18986 0.02 0.0617532 -0.126999 0.02 0.154697 0.150801 0.02 0.132046 0.123413
0.02 0.158982 -0.158909 0.02 0.124147 0.0908508 0.02 0.18095 0.0605345 0.02
0.193218 -0.0797642 0.02 0.186185 -0.000663263 0.02 0.202576 0.0151311 0.02 0.202574
-0.0164706 0.02 0.202486 0.170746 0.02 0.110267 -0.111233 0.02 0.170387 -0.189679
0.02 0.0772585 0.0309089 0.02 0.2025 -0.0322747 0.02 0.202338 0.121458 0.02
0.165139 -0.17406 0.02 0.108309 0.205076 0.02 0 -0.205512 0.02 0
0.205099 0.02 0.0148235 -0.205481 0.02 0.0154458 0.204553 0.02 0.0297533 0.202511
0.02 0.0448143 0.183105 0.02 0.0976458 0.198739 0.02 0.0600511 -0.205415 0.02
0.0309025 -0.048054 0.02 0.202184 -0.0953731 0.02 0.186175 0.0756224 0.02 0.195474
0.119113 0.02 0.172531 0.105845 0.02 0.18174 -0.14244 0.02 0.154866 -0.205314
0.02 0.0463754 -0.1581 0.02 0.139316 -0.189501 0.02 0.0928015 0.172722 0.02
0.121629 0.19693 0.02 0.0767081 0.0454421 0.02 0.206433 -0.0637857 0.02 0.202068
-0.126725 0.02 0.170499 -0.174089 0.02 0.124038 -0.205187 0.02 0.0618705 0.0911397
0.02 0.195716 0.186009 0.02 0.110685 -0.11094 0.02 0.186215 0.0608037 0.02
0.208112 -0.0794642 0.02 0.202003 0.215224 0.02 0.0290984 0.216771 0.02 0.014522
0.213014 0.02 0.0437438 0.217464 0.02 0 -0.000546128 0.02 0.218103 0.175966
0.02 0.129296 0.210501 0.02 0.058189 -0.189708 0.02 0.108537 0.0152247 0.02
0.218099 -0.0163223 0.02 0.218056 -0.205048 0.02 0.0773926 0.121368 0.02 0.182669
0.199005 0.02 0.094086 0.0309877 0.02 0.218051 0.174226 0.02 0.134816 -0.0320902
0.02 0.217975 0.145063 0.02 0.165918 -0.220807 0.02 0 -0.157901 0.02
0.155021 -0.220782 0.02 0.0154737 0.172775 0.02 0.139418 -0.142217 0.02 0.170619
-0.173549 0.02 0.139484 -0.220731 0.02 0.0309567 -0.0478372 0.02 0.217886 -0.0950965
0.02 0.201986 0.106373 0.02 0.196425 0.0758406 0.02 0.210351 0.210947 0.02
0.0742626 0.143041 0.02 0.172076 0.188169 0.02 0.123332 -0.204906 0.02 0.0929435
-0.126482 0.02 0.186284 -0.220655 0.02 0.0464532 0.0457602 0.02 0.221204 -0.18917
[...]
POINT_DATA 29622
FIELD attributes 1
p 1 29622 float
-114.408 -112.78 -104.183 -121.394 -111.304 -121.231 -103.565 -111.219 -122.212 -104.489 -123.331
-104.427 -102.784 -126.924 -132.167 -105.019 -139.487 -142.127 -107.787 -108.529 -110.063
-121.928 -126.208 -128.23 -140.921 -158.03 -162.031 -31.5524 -135.435 -44.282 -132.903
-31.0647 -131.446 -39.0959 -23.7527 -32.0673 -15.2289 16.5529 -18.067 -15.5397 19.1623
-129.406 -100.714 -139.878 13.8207 -126.526 -151.487 -154.93 -15.5812 -27.6123 -150.147
34.1302 -31.8571 -3.83874 -9.56045 -148.108 35.4667 -145.188 -4.58904 -17.1633 34.001
15.093 -5.23338 -5.48812 -24.3502 -24.4065 -108.282 -25.9436 20.2373 -4.31524 -44.7422
-24.1775 -64.0901 -116.202 -3.71289 -20.9669 -30.4605 -14.1398 24.6933 -8.68525 32.527
-125.047 -13.7168 16.1463 16.1471 16.2971 16.1845 -126.402 -16.1188 32.4956 -4.73169
-125.231 -18.1836 -13.6878 15.099 39.4345 -23.3672 34.3401 20.5392 -31.959 -76.5458
-5.18938 -21.93 34.0554 -81.8499 -33.5434 55.0905 -86.9676 -92.4611 -88.6318 22.7169
-23.392 -32.6927 70.6577 46.4286 82.3153 60.5951 36.893 -17.9093 -47.6562 -35.8236
48.6808 79.3381 107.543 -44.2307 51.1305 32.8039 20.8071 -42.7275 17.1326 51.8383
-64.8283 -39.2606 -46.9854 56.8232 -61.0413 -51.3136 71.4268 59.4603 -50.442 76.5517
-33.9352 65.3773 85.7404 -46.6041 -49.1493 -96.216 100.363 94.1827 63.1971 -97.0498
-29.2981 71.7493 18.9811 66.7684 34.049 -100.539 41.0827 -23.9921 -25.5899 -59.3135
-23.1775 79.0885 63.9551 76.1689 82.7759 -30.4848 -28.6653 74.3524 -63.8139 66.4887
88.0816 68.1592 -15.9391 -63.8748 90.0047 86.8862 -22.8058 84.7682 70.7148 70.1501
-30.0382 71.2127 -12.0972 75.7503 -33.4148 -17.1019 44.4216 51.5567 66.6777 -8.44526
59.7908 66.4044 50.6195 75.9713 -7.87421 -33.5613 77.3795 66.9528 -8.56087 67.2738
-7.25446 60.1707 79.1479 -5.21269 -16.2427 77.2048 69.8306 62.3719 -3.32824 39.5942
-9.82228 64.9826 64.4727 72.332 39.5798 52.2221 -12.8388 51.9974 54.0558 54.2075
55.499 -3.17986 66.1093 -11.7339 71.9676 62.1081 41.5496 72.416 -0.939219 0.504521
-11.9835 57.9634 -7.90935 50.6321 67.9468 72.6918 45.0304 2.31976 71.2605 62.5746
4.26623 58.2583 44.4534 4.27945 60.9286 -2.71658 63.3011 -3.41331 68.3323 -2.41271
2.5487 49.5537 64.3987 50.2915 50.5021 45.0604 47.1388 -2.90543 58.1795 51.3796
52.7777 67.866 67.9199 0.613472 65.1683 60.8052 0.123009 54.5196 67.6725 59.5902
1.64903 49.2799 61.5461 66.5308 50.3605 3.49785 2.89847 57.504 46.6766 55.005
5.83339 4.63505 4.63865 5.12129 62.3057 49.0326 64.5413 5.11828 48.4768 4.58256
49.0655 48.6406 47.6566 54.9804 58.1445 47.8292 48.7373 50.3704 50.2225 59.0459
4.78698 64.0179 56.5811 62.225 63.9373 -1.79856 51.4575 63.537 59.6596 -0.340524
49.717 45.7893 3.99282 54.5241 62.5892 1.55195 4.69899 47.375 6.42581 51.9876
59.9028 3.52874 3.67093 48.4299 6.75763 56.6553 61.1151 55.472 6.46994 49.7541
57.3176 45.684 45.2575 52.0841 47.0122 46.6382 47.638 3.90775 53.8285 59.3458
46.237 48.4412 49.0334 57.6549 -4.31298 60.5249 -2.91851 60.4038 -1.38436 0.398362
1.92016 0.92847 59.9913 49.0922 51.8256 44.0118 47.7473 46.1158 54.2492 59.1996
55.128 57.4623 3.93091 -2.96868 45.1382 49.4673 52.9533 55.5485 58.0433 43.7794
1.55384 51.3153 43.7964 49.5635 -4.83249 -5.87983 -4.52949 -7.21173 45.2733 4.95244
-6.60697 55.5561 44.7707 45.8764 56.6446 45.4878 -5.98308 44.2801 7.1571 46.4972
47.0273 57.3963 52.9409 57.2684 7.91097 51.9519 53.5478 56.8874 46.9814 49.4016
43.6343 42.8441 -14.5595 46.22 3.52235 55.106 50.6261 56.2224 43.4083 53.7377
47.2673 -13.1045 -9.29392 44.6549 -8.41552 55.2805 -9.35403 42.3272 0.823689 -10.6095
49.0253 42.9657 8.09476 42.3143 47.3485 53.513 45.4571 50.8494 51.5712 12.4449
54.1421 43.6263 43.1133 44.1555 -15.2836 49.803 51.9333 44.5186 14.0134 -23.1967
42.5707 44.6545 54.6056 41.8736 54.4749 41.3882 47.2314 54.1268 48.4768 45.0404
13.9334 43.1569 52.8662 51.9142 42.2557 41.7757 53.5637 -14.6224 45.2761 -12.635
-20.3952 40.7314 49.6672 -13.4759 52.7808 41.2598 43.3481 48.8654 -14.4356 46.9381
50.1555 31.9905 51.5137 40.7979 45.3495 18.8241 47.7898 34.1022 42.5428 50.3126
51.8377 34.7808 -6.75919 42.036 41.564 40.1137 41.5275 42.5141 -36.0396 41.5375
39.9198 42.9337 52.0985 46.4862 45.2606 51.9569 40.9284 40.3979 50.1238 51.623
50.7664 43.2556 47.8422 48.4322 40.2153 51.1385 46.9932 39.2197 48.7219 39.3384
43.4535 45.0175 -17.8372 61.3274 -35.6885 -21.576 -18.1271 50.4908 -18.4975 49.6088
45.9045 39.7854 39.342 48.713 -30.7367 43.5191 39.1728 38.4933 49.7039 -18.7631
38.8459 38.5362 38.3377 40.4995 44.6413 46.8004 40.0063 40.9432 46.1329 48.3967
47.1867 43.4427 41.3184 -49.0817 49.7955 38.2942 80.1854 49.6458 39.4235 48.8046
61.5162 45.2613 49.3209 41.6009 47.325 87.3317 37.6135 37.8111 38.7589 37.5716
81.0181 48.8943 37.4214 87.0774 41.7735 43.2356 44.1734 37.126 47.8116 -70.9408
47.1525 48.3563 37.9778 -22.3027 -21.9465 96.5957 -22.7637 37.0119 41.8234 45.2551
45.7574 35.1929 -26.5775 36.599 47.6862 44.5826 45.9751 37.2138 -80.4666 42.9516
34.7896 -34.9655 46.7541 -77.9004 39.0262 38.5536 39.4426 41.7576 35.6388 43.6566
-79.128 45.9547 38.0168 39.7918 47.6759 34.4742 46.9284 35.7642 36.0891 47.5784
36.4613 47.2422 40.0472 -46.9715 37.3867 35.4517 110.604 46.9067 42.6165 41.6075
44.2898 45.6918 40.2 107.38 43.8892 46.0734 44.7559 36.6778 46.4835 31.3647
35.6127 35.0742 43.024 -61.3094 44.7159 40.2382 -23.4164 31.2483 -23.9904 33.6724
35.9484 34.1231 46.1697 41.3995 -24.1196 45.1689 42.2375 34.1089 31.5302 -26.0456
44.6742 -68.2159 40.2037 34.6798 37.6052 37.1534 38.0082 -67.8155 45.3155 35.1644
-31.9628 36.6461 38.3648 45.5211 33.9296 45.4745 -67.1065 43.117 43.4548 45.2982
36.0688 38.5929 42.429 41.0649 43.687 44.2044 40.1408 45.0135 -39.3463 44.7387
35.4188 38.7378 33.6718 41.7929 31.9823 34.2923 30.6363 43.6722 44.636 32.4895
34.7174 38.7849 32.5973 -50.2907 40.026 40.7012 -23.5121 43.7475 43.3589 -24.0002
33.376 42.028 -23.4925 25.4267 38.7552 32.5346 -58.5004 33.9194 36.2439 -24.1071
35.8089 36.6774 40.9495 25.7481 42.3856 -59.6158 35.3217 37.0494 43.6133 43.8369
29.2983 39.8587 30.6019 -28.7063 -59.2179 43.607 43.019 34.7709 37.5033 26.9212
38.6729 32.3808 31.1001 33.0595 43.5699 34.1552 37.5039 -34.2368 31.2559 42.9973
33.4748 39.2684 37.7154 38.5135 41.9724 32.1608 21.5629 -42.981 31.2548 -23.323
28.6138 22.167 26.7179 -23.8661 32.72 37.5309 29.4642 -23.3972 41.8897 -50.1232
34.9343 34.5369 35.3097 23.5758 29.8701 -23.3905 34.0707 35.5335 -51.1029 31.1676
31.8848 37.5381 -50.7185 33.5366 -26.6573 30.032 39.4226 40.0218 32.9395 -30.4029
19.8967 30.9966 26.5587 37.1774 27.7042 32.2747 30.0616 24.5131 40.7052 28.3649
38.2441 20.519 39.9762 -36.289 28.7285 31.5537 21.8572 -22.766 -23.1637 -41.9001
30.0112 -22.7115 33.8405 33.5839 34.2688 28.8996 40.2974 33.0008 34.3615 -42.882
-22.3142 30.7117 40.2033 -42.3973 32.6017 25.8235 24.3704 26.7369 -24.4205 31.8854
34.7438 22.1939 36.6114 27.3116 28.9499 39.3257 39.82 29.8278 -26.8628 31.3605
27.6599 37.8668 -30.565 30.4344 34.8379 37.0884 28.8993 38.1164 17.6344 39.1035
27.841 -22.1355 23.9038 25.0561 -22.3438 -34.9076 22.1546 18.3075 25.81 -21.788
-35.8299 29.5899 -21.007 -35.2079 19.7499 26.3084 27.8963 -22.1728 35.8461 37.8124
28.7029 26.6401 34.6616 38.1565 -23.7872 23.3979 22.1718 24.2892 15.9077 26.8262
-26.0196 20.3191 29.0387 27.805 24.9034 16.708 -29.1255 -21.5732 25.3412 -21.6537
18.1051 31.3973 28.4571 -21.0609 -29.7518 37.6356 30.5704 32.0003 35.7977 36.2511
-29.0255 -20.0596 37.5308 26.8525 34.2451 37.0364 25.6572 -20.5906 22.7653 21.8258
29.5027 32.3812 27.6547 20.6479 23.4863 37.1852 34.897 36.2364 -21.5987 15.8001
19.0275 24.0171 25.8162 16.4421 26.7933 -22.7895 28.1216 32.5091 24.415 17.4877
36.6017 -24.8176 -21.1923 21.2636 -21.2054 27.5982 -25.0162 20.3455 22.0394 -20.6458
24.702 33.625 25.8607 -24.2462 35.7631 22.6691 19.252 -19.6108 -19.8575 23.1512
26.7605 32.3988 17.8708 35.8553 -20.4423 34.4524 24.8468 23.5139 26.0351 33.8624
34.6653 -21.0481 19.8378 20.6024 18.9852 21.2727 -22.4013 16.6714 21.8423 18.0221
-22.1341 23.7785 17.0082 -21.0214 29.1976 25.0005 -21.0078 32.0665 -21.3093 34.9422
-20.5104 35.2305 22.2872 28.4181 29.8118 32.8709 34.4275 17.3229 35.1334 -19.5455
-19.7612 27.4254 30.2498 19.228 34.828 19.8843 24.1076 18.5255 22.6062 -20.2319
17.8644 20.4837 -20.2275 17.3457 -20.5376 17.2627 21.0101 26.1985 30.389 34.3442
-20.3249 17.5189 22.8571 -19.6046 31.5911 33.8818 21.4006 32.7876 17.5031 33.1269
-20.9931 -20.9833 18.5353 17.9154 -20.5736 19.1375 17.3485 -19.7445 24.7363 30.3288
32.0473 33.1219 19.694 16.986 33.7587 -20.0398 21.7154 -20.8611 17.0079 20.1746
17.6355 -21.0995 17.5978 21.634 17.2001 -20.8215 17.2833 17.7976 20.5279 16.6639
31.0392 32.7589 18.3793 23.0213 30.0807 16.3038 32.9965 -20.7138 27.1579 -21.0659
18.9072 -21.089 16.2824 33.0686 26.4069 27.8079 -20.7854 -20.1259 32.9825 -20.113
-19.4441 20.8013 16.4907 -20.4289 25.4803 28.326 19.3377 31.7242 32.7264 -21.5294
31.0891 16.4343 15.8933 31.7415 17.0339 15.4961 -22.2546 17.6099 20.956 24.3107
28.8157 15.3734 29.6923 19.7041 32.1127 32.3301 -22.3542 15.5433 18.11 17.7202
30.4241 31.6956 -22.0795 17.4348 -21.3161 -21.2271 -21.3086 -20.6397 20.114 -21.1173
22.9104 28.5794 16.4441 15.0859 -20.577 18.5516 15.6485 14.6382 31.9192 16.2615
-20.8467 14.4006 -21.9087 16.8251 14.5437 -22.6521 18.9967 29.2109 31.1426 14.9816
18.2677 17.3388 -22.8014 21.2734 28.614 30.2255 30.587 17.7058 31.5298 14.2764
13.7622 -22.9131 14.8719 13.403 16.4026 -22.5498 15.4935 25.2897 -21.4788 17.9562
29.7239 13.3306 -22.0367 -21.6113 30.5869 31.1097 25.8548 24.5803 -21.5132 31.036
-21.1062 13.7245 16.0629 -21.4363 26.1549 23.6831 30.8222 -22.5951 14.704 19.4239
28.0668 30.5589 12.8976 -23.6671 13.4819 16.6613 28.6913 12.415 30.2646 17.511
22.5601 14.1119 30.4795 12.1428 16.9085 -24.3296 12.2299 15.7249 14.7505 -24.8397
-24.6449 12.8704 -24.227 -21.7779 -21.9357 21.2367 15.4788 -21.9059 30.1078 -21.653
12.0541 11.4631 12.7007 -22.1582 28.5939 14.006 29.1661 11.0269 17.3726 27.7832
29.8623 -23.5625 13.3537 10.8514 16.5061 -25.1577 15.8861 11.0715 13.9832 19.6318
14.6615 -26.5466 11.8393 -27.578 10.5624 -27.7217 11.2423 9.98902 -27.5077 23.7172
11.9237 -21.9397 9.60733 -22.1264 29.3277 24.3836 23.2423 -22.1769 29.2643 12.7572
-22.0733 9.49469 12.6123 24.4855 22.1558 -22.7322 15.0949 27.0204 28.7312 29.0796
17.847 -24.3465 9.78377 12.9161 -26.3854 21.26 9.72961 28.7809 9.0442 10.3303
10.47 8.48035 -28.4567 8.09732 11.186 -30.1352 15.4309 -30.9157 14.5029 7.99625
-31.0847 24.8542 19.655 -21.8595 11.8743 12.2639 28.4252 -22.0895 -22.227 15.9
-22.2283 8.26063 -22.9417 8.18853 12.4666 8.96319 7.47064 -24.6528 9.74386 6.86132
8.85507 -26.9101 18.0992 6.4413 10.5218 12.1292 -29.2443 6.27057 11.1479 11.3468
-31.0514 9.33132 -32.1129 -32.5354 26.5803 7.40453 6.56805 13.7465 -21.5557 6.33207
-21.8126 27.6995 8.25055 5.78139 -22.0005 27.6449 -22.0562 5.11399 24.6445 16.3743
9.10292 27.3038 -22.7385 27.486 6.62675 4.59882 -24.4089 9.97877 25.6768 26.6412
-26.5556 6.01814 27.2302 4.14419 5.29169 -28.4744 5.76282 6.68477 4.40586 4.84324
3.99161 7.61495 -29.5022 3.60939 -29.9809 17.7237 14.536 -30.244 3.22334 26.9562
11.3792 8.64366 -21.0336 -21.291 -21.483 2.45947 -21.5431 2.20193 -22.1298 -23.6312
5.05168 4.03359 1.52204 16.6105 3.04138 6.05374 -25.4102 2.08066 7.09412 -26.5326
-0.20409 1.10282 12.5153 24.0165 25.9548 -26.4656 -26.0253 -25.9236 -2.61005 -0.0073299
20.4194 -20.3093 -2.83682 -20.5466 26.2058 8.79581 15.0578 3.34017 -20.6992 26.1582
2.23352 -2.65127 4.44474 -20.7177 1.1374 21.3544 18.8876 -1.508 5.60921 -21.1871
26.0198 -0.00452557 -22.5089 -23.8857 25.7965 -1.27475 -4.08582 -24.2461 10.2654 1.54817
13.3361 -2.79107 -7.85593 2.7411 -23.3512 0.354745 -7.95335 -22.2612 21.7763 3.8413
16.5774 24.2191 24.663 25.5311 -21.8915 -0.901133 -7.69991 -19.4291 -19.629 -4.85357
-19.7077 -2.2881 -19.6695 5.98786 -20.0499 -21.2674 -3.89626 15.5253 -7.78852 -22.3733
-0.299245 0.9757 2.20749 11.4222 -1.63046 -5.9017 -22.2135 2.97867 -13.9492 -13.645
-3.09253 7.81499 23.0992 -20.8331 24.4278 -19.4201 -12.4884 -18.9295 -8.60479 -4.73915
21.7588 13.9756 24.6743 -18.4202 -18.5842 24.8307 -18.5943 24.7892 -18.5235 -6.70874
-0.823776 0.501506 -18.8541 -2.21933 24.6686 -12.6778 1.72817 -19.9776 -3.73254 2.83848
-21.0114 -9.25942 9.29149 24.4739 -5.39655 -18.3158 -20.6025 12.4843 -16.8863 -16.4273
-7.29914 -12.9899 5.17034 24.2638 -2.68458 -1.23382 0.132165 -4.23484 -9.63594 -17.303
-17.4473 -22.7795 1.44278 -17.426 -5.90465 -17.3649 -21.608 -17.6857 -18.6054 -12.6948
-18.6339 -7.77 10.5227 21.3863 23.6162 -19.6536 6.99739 -9.95468 -19.4578 -3.02184
22.6944 -4.6139 -1.53337 -17.2651 -0.116089 -17.8361 -6.2907 -12.6189 -26.9156 -8.12755
-16.0001 -25.4668 17.67 2.36076 -14.5859 21.9949 -16.115 22.8151 -16.2656 23.5612
-14.086 -16.2517 23.5246 -22.7731 -10.2203 -16.213 -16.0544 18.6123 -16.5527 16.2126
23.4184 8.60955 -17.3221 -4.86457 -3.25525 -6.57703 -1.70836 -12.6687 -18.2852 23.246
4.49771 -20.5648 -8.38487 -18.3074 -15.6206 -16.8713 -10.4068 -27.9985 19.1102 14.2364
23.0409 -14.8383 -26.7949 -13.4028 -12.6988 -24.653 -12.917 -19.2182 -5.02308 -14.8951
-15.0807 -6.73911 -3.40466 -15.0975 -15.0662 -8.55237 6.1944 20.7466 -15.4363 -15.3641
22.394 -0.580775 -16.1501 -10.5205 -23.4706 -17.0873 -12.6946 -18.4962 -17.0876 1.86127
-15.1981 -6.80463 -5.10349 -15.1306 19.2263 11.7304 -8.63793 22.3723 -13.0014 -22.1643
-11.8454 -10.5725 -11.443 -13.6645 22.3858 -13.8925 -17.9156 -13.9438 22.3537 -12.65
-13.9189 -29.3098 -14.3288 3.9073 22.2601 -28.1766 -15.0824 -14.933 -26.1297 -21.0243
-16.0141 -6.92127 -8.6188 22.1084 -15.9801 -10.5585 -3.64187 20.7944 21.1769 -17.4621
-13.9098 -12.569 -24.5943 21.9442 -11.4929 -0.852033 -10.2683 -20.2374 -14.7386 -9.85955
5.08167 -29.7636 -12.4083 -12.6679 -12.7502 -28.688 19.038 8.66112 21.5331 -12.7312
-17.106 -8.57951 -7.23917 -13.1738 -27.1969 -10.4453 -23.1801 -13.9819 1.47523 -12.4514
19.9241 21.0761 -14.8899 -19.6594 -14.5258 -14.8 -26.1308 -12.6787 -16.7773 -22.342
-10.1456 -29.1957 -8.50906 -8.8274 -10.2823 -6.9009 -8.40239 3.39152 -28.6057 -12.2434
-19.1832 15.3525 -11.1005 21.2952 -11.3721 -27.8786 -3.63694 -11.4777 -25.0273 -14.283
21.2666 -11.4718 -11.93 16.2491 13.9476 21.1834 -21.7133 -12.7694 -16.446 -13.6684
-0.999439 21.0479 -27.6795 -13.5305 -18.7445 -10.0715 -8.37549 -24.2636 -11.9728 -11.4179
-14.0072 16.7835 12.1233 4.89316 18.6129 20.5456 20.8865 -8.92706 -21.1499 -7.63701
-16.1068 -7.23606 -26.898 1.22679 -9.71553 -9.98341 -10.1125 -18.3109 -23.6254 -10.1632
-10.6511 -29.939 -9.8385 -11.4913 19.562 -11.6643 -20.6242 -29.6036 -13.6488 -6.45113
-12.3896 -26.0621 -29.2121 -15.7408 -12.2071 -23.0222 16.995 9.90822 -3.52861 -10.0908
18.991 19.7109 20.3549 -17.8773 3.09589 -7.63361 -28.7981 -6.33708 -20.1078 -5.93684
-25.4576 -11.4021 -13.2563 -8.23062 20.2811 -8.49193 -1.02944 -8.6531 20.2557 -31.7064
-15.2954 -8.79581 -22.4385 -31.3295 -9.34495 20.1816 -17.4314 -10.1804 -30.9705 -27.8827
-11.0633 20.0613 -19.5832 -24.8489 -10.8249 -8.71585 1.09217 18.0146 -30.5953 19.4623
-12.8879 -9.25764 -21.8489 19.9304 -6.33894 -14.8221 -27.3261 -5.07518 7.26703 16.9442
19.6799 -16.9091 -6.09554 -4.68898 -24.2157 -33.8509 -6.63842 -6.89311 -19.0377 -7.08555
-33.5276 -7.30774 -29.8958 -7.91374 -33.0786 -3.34332 -8.75406 -21.2429 -26.7018 -9.61593
-14.4398 -9.31763 -16.3469 -23.5613 -32.7554 -7.22437 -18.4724 -29.3419 -4.92317 -0.995585
-3.66062 -26.0002 -20.6268 -3.26296 -36.5603 -36.3243 13.3485 -4.88175 19.3363 -5.12725
-32.2195 -5.34256 -22.8805 -35.7908 19.3135 -12.0091 -5.61801 -28.6319 -6.25322 -15.8385
14.5537 -8.63492 12.0197 18.0019 18.3413 19.2471 -7.09021 -17.8356 -7.90802 4.22689
16.6878 -25.2679 18.8747 19.1387 -19.9862 -5.6921 -7.54227 -35.8153 -31.5691 -5.47819
-22.1847 -27.8324 14.8242 10.3414 19.0095 -3.24864 -1.97109 -3.13961 17.3013 -1.54669
18.3221 -24.503 -17.327 -35.1929 -30.6867 -2.91487 -3.15078 -19.2701 -3.38217 -3.68052
-4.29387 -26.9975 -21.4679 -5.08194 -42.4851 -5.80213 -41.8019 -34.0329 -5.36267 -23.7102
-39.9879 15.363 8.40504 18.5805 -29.745 -14.6441 -11.0988 -3.42547 -1.43516 -18.6657
-7.98623 -26.1218 -0.314674 -38.6286 -20.6691 0.0649898 -32.9125 -5.35449 -0.712037 -22.8926
-0.936411 18.4546 -28.7738 -1.16369 18.4341 -1.43814 -46.8688 0.86608 16.2661 17.9791
-1.96826 18.3746 -45.9708 -2.65339 -36.7845 -25.2191 -44.1696 -3.22101 -18.1435 -31.791
18.2776 -2.66457 -19.8931 -0.822751 -27.7677 -22.0559 6.16069 15.1537 18.0313 0.994028
18.1719 -42.0027 2.0324 -35.3822 2.40021 -24.3174 -30.6303 -13.4628 16.9972 -17.2405
-10.1959 1.80031 1.58896 -51.0025 1.38232 1.16216 -19.1111 -26.7484 -49.9375 0.75372
-39.8726 0.226317 -21.1559 -47.8051 -7.48622 -33.9861 16.5174 17.1606 -0.126119 -29.4595
-23.4041 0.638411 2.57393 -45.6042 -38.0981 -25.7421 4.49175 5.69711 -32.5656 -18.4512
6.15582 -20.2592 -28.2975 -56.0803 -22.4111 11.2185 3.57392 15.2515 -54.6815 4.63282
4.43299 17.369 17.6304 4.25341 -43.2303 17.6119 4.10926 -36.2936 -51.9008 3.8492
10.2831 -2.67266 15.7343 17.0234 17.5581 -24.7341 3.54024 -31.1804 3.4606 -15.6684
-12.3261 17.4703 4.42881 -27.1581 -19.4722 6.44085 -9.38192 -40.9528 -49.9906 -34.5445
8.39456 8.87659 -21.4299 17.3653 9.65427 -29.8323 10.1455 -23.6495 -7.17356 -47.0935
-38.6506 -26.0352 7.76942 7.57975 7.43733 7.39061 -32.8951 7.27702 7.18509 -20.6869
7.35828 -28.5153 -61.9887 8.4224 7.2152 -43.9158 17.0147 -60.1218 -22.5771 -36.534
10.3312 -55.752 -24.8518 12.0831 -31.3201 0.739323 14.7393 13.183 16.6239 -14.3076
13.621 -17.7159 -11.254 15.7002 -51.3198 16.0046 -27.2304 -41.0471 -34.5956 11.2342
11.0529 16.8588 -21.6548 10.9473 -8.59552 16.8422 10.9991 11.0229 -29.8165 -65.886
16.7936 11.1045 -23.6788 -63.8063 11.4548 -46.9037 -38.5541 -59.8734 12.5559 16.7144
-25.985 -6.28694 5.2912 15.12 16.0371 16.5632 -32.7894 14.3716 16.0294 16.6277
17.1288 -28.4043 -54.917 17.5934 -43.4581 -22.7929 -36.2951 -31.1086 -24.716 15.0315
14.8549 14.7824 -71.1467 14.9344 15.1117 -68.4239 -16.1276 -13.021 15.3574 -49.7202
-40.5422 -27.0565 15.8447 -63.3966 -34.2369 -19.589 -10.2348 16.9861 18.7932 -29.5527
20.5022 -2.18305 14.5367 15.8194 -23.6295 -7.94868 -45.7482 21.7455 -57.8474 -37.9248
22.2985 3.0649 16.0139 -25.6961 -32.3603 19.1323 18.9608 -73.874 9.90386 18.9301
16.1354 -28.0793 19.1932 16.1203 -52.1329 -42.3576 19.5318 -70.8705 9.08364 19.9423
16.0762 -35.5907 20.5428 -65.5138 -30.6389 21.6913 16.0039 -24.668 23.4238 25.0494
-47.6806 -39.3683 -14.6555 7.7376 11.3567 14.8741 15.9176 -26.6104 -59.7797 26.2588
-17.7686 -11.8264 -33.4937 26.8074 -21.2456 -29.0259 -9.36888 14.4655 15.0431 -74.7623
23.5155 -43.8489 23.3576 23.3864 -53.8192 -36.7574 23.767 -71.6278 24.2509 24.7979
-31.5776 -25.338 -66.2723 25.4735 0.673831 6.43025 15.39 15.6281 26.567 28.0943
-27.4213 -49.0645 -40.5411 29.4132 -34.4389 -60.6528 30.3202 30.7266 -5.02658 13.8723
-29.805 14.9798 -24.0428 -44.9534 -37.7079 -74.9933 -54.6861 28.1575 28.0245 -16.1199
-13.3037 -25.9534 28.1311 15.4562 -32.3564 28.637 -71.6417 15.4425 29.257 -19.2056
-10.9585 29.91 15.4025 -66.2199 30.6478 -28.1576 4.54093 11.9227 15.2534 31.6986
15.337 -41.4506 -49.8756 -35.2285 33.0471 -22.7471 34.0939 -60.7721 -30.4947 15.2652
34.7538 -24.5617 35.0568 -45.6564 -38.4607 -72.493 -26.5632 -33.0348 -54.8794 -69.5179
33.0033 32.9098 33.1256 33.7859 -1.75219 -28.79 14.7098 34.5639 -65.0362 35.3302
-23.4958 -42.0531 36.1614 -35.8612 -50.1811 37.2776 -31.0905 -14.6247 38.5841 -25.1013
-60.6758 -17.3911 39.4299 -12.1834 2.65958 13.7833 14.0599 14.7943 40.0475 -27.1254
40.4008 -20.4149 -38.9648 -45.9486 -33.5767 -54.8818 -29.3197 37.959 37.958 38.3479
-23.9027 -7.65972 13.4999 14.1243 14.8177 39.2036 14.8052 40.1785 -42.2959 -36.2775
14.7686 41.0657 -68.4708 -50.1827 -25.6092 -31.5535 41.992 -65.2274 14.7087 43.3097
44.8615 44.5646 45.6021 -27.6021 -60.511 45.9983 -39.1615 14.6371 -45.8522 -33.9212
-54.8569 -29.7141 -24.526 -15.759 -13.5417 42.9144 43.0091 0.608849 11.8989 14.2687
-18.4517 43.6288 -42.1702 -63.4528 -36.4306 44.7717 -26.0299 -49.6941 -4.11654 -31.8391
45.9717 13.9929 -60.3188 46.9798 14.3958 -21.3777 47.9062 -27.9452 -56.7497 49.4406