# vtk DataFile Version 2.0
sampleSurface
ASCII
DATASET POLYDATA
POINTS 29622 float
-0.000626264 0.02 0 -0.000711655 0.02 0.0141674 0.0147896 0.02 0 -0.0159899 0.02
0 -0.00116012 0.02 0.0180502 -0.0155282 0.02 0.0128408 0.0125134 0.02 0.0160665
-0.00153405 0.02 0.0212859 -0.0157761 0.02 0.0167357 0.0119059 0.02 0.0199308 -0.0159829
0.02 0.0199816 0.0113994 0.02 0.0231511 0.0307112 0.02 0 -0.03158 0.02
0 -0.0313963 0.02 0.0122895 0.0322044 0.02 0.0100037 -0.0314347 0.02 0.0161643
-0.0314668 0.02 0.0193933 0.035056 0.02 0.01626 0.0338862 0.02 0.0221196 0.0329105
0.02 0.0270048 0.046561 0.02 0 -0.04742 0.02 0 0.0479306 0.02
0.0101734 -0.0474942 0.02 0.0127772 -0.0473299 0.02 0.0165239 -0.0471929 0.02 0.0196463
0.00924481 0.02 0.0516915 0.0494094 0.02 0.0183313 -0.0134021 0.02 0.0516237 0.0480848
0.02 0.0247778 0.00925064 0.02 0.0544086 0.0469797 0.02 0.0301574 -0.0134578 0.02
0.0549233 -0.0260141 0.02 0.0516224 0.00925771 0.02 0.0576651 0.0285421 0.02 0.0517212
-0.0335024 0.02 0.0503979 -0.0262833 0.02 0.0549314 0.0285517 0.02 0.0551565 -0.0338111
0.02 0.0524296 0.0624323 0.02 0 -0.0635513 0.02 0 0.0631854 0.02
0.0123018 -0.0341816 0.02 0.0548694 -0.0631422 0.02 0.0145995 -0.0627523 0.02 0.0179257
-0.0624271 0.02 0.0206975 0.0285632 0.02 0.0592835 -0.00839835 0.02 0.0658926 0.063721
0.02 0.0227067 -0.0482842 0.02 0.0478235 0.00967915 0.02 0.067425 0.0458271 0.02
0.0517467 -0.0226337 0.02 0.0654011 0.0630239 0.02 0.028683 -0.0486978 0.02 0.0509764
0.062443 0.02 0.0336742 0.0458203 0.02 0.055416 0.026845 0.02 0.0680903 -0.0491941
0.02 0.054759 -0.035021 0.02 0.0649161 0.0458122 0.02 0.0598276 -0.0191597 0.02
0.0732754 -0.00311666 0.02 0.077051 -0.00255422 0.02 0.0782358 0.0784938 0.02 0
0.00194428 0.02 0.0786012 -0.0636358 0.02 0.0466853 -0.0173222 0.02 0.0775525 -0.0765921
0.02 0.0224313 -0.00232999 0.02 0.0798271 -0.0772697 0.02 0.0204922 0.0788037 0.02
0.0139438 -0.0780823 0.02 0.0181648 -0.0802538 0.02 0 0.0124228 0.02 0.0794745
0.0621102 0.02 0.0517893 -0.0640599 0.02 0.0501172 0.044288 0.02 0.0683138 -0.0503008
0.02 0.0642321 0.07854 0.02 0.0258466 0.0621029 0.02 0.0552551 -0.0333233 0.02
0.0767836 -0.0333103 0.02 0.0768858 -0.0334615 0.02 0.0768769 -0.0332875 0.02 0.077004
0.0784374 0.02 0.0301441 0.0269021 0.02 0.0796185 -0.0645673 0.02 0.0542281 -0.0167508
0.02 0.0829226 0.0783517 0.02 0.0337218 0.0620941 0.02 0.059424 0.0435428 0.02
0.078852 -0.0787026 0.02 0.044501 -0.0656735 0.02 0.063512 0.0609156 0.02 0.0687538
-0.0521327 0.02 0.0759212 -0.0794839 0.02 0.0479436 0.0779046 0.02 0.0518514 0.0948037
0.02 0 -0.0158667 0.02 0.0942564 -0.000383487 0.02 0.0955942 -0.0804181 0.02
0.0520697 0.0951817 0.02 0.0152146 0.0779126 0.02 0.0570228 -0.0980541 0.02 0
0.0937075 0.02 0.0295273 0.0934653 0.02 0.0318318 0.0932639 0.02 0.033747 -0.0307605
0.02 0.0947054 0.0142616 0.02 0.0986948 0.0597441 0.02 0.0801689 -0.0909562 0.02
0.0419181 -0.0668854 0.02 0.075392 -0.0998412 0.02 0.016911 -0.0922551 0.02 0.0437855
0.0168196 0.02 0.100996 0.0269517 0.02 0.0992279 0.0450617 0.02 0.09251 0.07753
0.02 0.0682577 -0.0817634 0.02 0.0636401 -0.0938102 0.02 0.0460256 -0.0998281 0.02
0.0335224 0.0926972 0.02 0.0518158 -0.0507033 0.02 0.0933516 -0.00118864 0.02 0.107376
-0.0198713 0.02 0.105984 0.0930811 0.02 0.0549867 0.0322709 0.02 0.103383 -0.0471823
0.02 0.0993111 0.0611389 0.02 0.0920601 0.0757902 0.02 0.0815793 0.111368 0.02
0 -0.0819878 0.02 0.0758654 0.106626 0.02 0.033755 0.111677 0.02 0.015575
-0.0512522 0.02 0.100983 -0.0693622 0.02 0.0901735 0.0443505 0.02 0.105441 -0.114433
0.02 0 0.0941685 0.02 0.0681304 -0.098111 0.02 0.0626988 -0.115406 0.02
0.0159041 0.106639 0.02 0.0514943 0.077111 0.02 0.092559 0.062589 0.02 0.103095
-0.116732 0.02 0.0309014 -0.11361 0.02 0.0456422 -0.0830293 0.02 0.0904377 0.0620976
0.02 0.106128 0.0917701 0.02 0.0824748 -0.0692362 0.02 0.103597 -0.0157512 0.02
0.123653 -0.0981586 0.02 0.0769568 -0.0286459 0.02 0.121586 0.0616911 0.02 0.108642
-0.00135098 0.02 0.126852 0.127678 0.02 0 0.127681 0.02 0.0157497 0.0779179
0.02 0.103318 0.110542 0.02 0.067339 -0.129878 0.02 0 0.0135636 0.02
0.129698 -0.115046 0.02 0.0624473 -0.13025 0.02 0.0155149 0.0926218 0.02 0.0929193
0.127607 0.02 0.0317518 -0.0512544 0.02 0.12196 0.0769845 0.02 0.107826 -0.0979274
0.02 0.0912246 -0.130467 0.02 0.0307187 -0.0830669 0.02 0.105459 0.108343 0.02
0.0804684 0.076205 0.02 0.111591 0.033156 0.02 0.131508 0.0291973 0.02 0.132459
0.126891 0.02 0.0510967 -0.129316 0.02 0.0457947 -0.114159 0.02 0.077738 -0.0672405
0.02 0.121204 0.0915473 0.02 0.105188 0.0335813 0.02 0.13607 0.125156 0.02
0.064945 -0.12863 0.02 0.0610193 0.0903924 0.02 0.110214 0.108416 0.02 0.0927111
-0.0167998 0.02 0.141976 -0.00122092 0.02 0.143552 0.0443986 0.02 0.136994 0.144241
0.02 0 0.014292 0.02 0.143703 -0.0976212 0.02 0.106426 -0.033047 0.02
0.140708 -0.144999 0.02 0 0.144192 0.02 0.0157437 0.0894279 0.02 0.114412
-0.145097 0.02 0.0153857 -0.0822205 0.02 0.121736 0.123616 0.02 0.079756 -0.114272
0.02 0.0926863 0.14381 0.02 0.0316597 -0.0499473 0.02 0.138659 -0.14504 0.02
0.0306779 0.14253 0.02 0.0481078 0.109841 0.02 0.102812 -0.14452 0.02 0.0459283
-0.130173 0.02 0.0778439 -0.0659231 0.02 0.138019 0.140391 0.02 0.0629309 0.0619994
0.02 0.14141 0.1236 0.02 0.0935311 -0.11262 0.02 0.107019 -0.0971985 0.02
0.122314 -0.144037 0.02 0.0612498 0.0610269 0.02 0.144909 -0.00109627 0.02 0.157281
0.112365 0.02 0.110111 -0.0169303 0.02 0.156556 0.0146763 0.02 0.15714 0.0303439
0.02 0.155927 -0.0330245 0.02 0.155701 0.138275 0.02 0.0797507 -0.129523 0.02
0.0935127 0.111013 0.02 0.115179 -0.160051 0.02 0 -0.0813649 0.02 0.138082
0.0598586 0.02 0.149119 -0.160049 0.02 0.0153647 0.161091 0.02 0 0.161419
0.02 0.0155742 0.109887 0.02 0.119403 -0.0491994 0.02 0.154789 0.124483 0.02
0.104644 0.0457774 0.02 0.156097 -0.143679 0.02 0.076667 -0.159941 0.02 0.0307111
0.0761826 0.02 0.145158 0.161411 0.02 0.0311713 -0.159648 0.02 0.0460564 -0.112328
0.02 0.122769 0.159875 0.02 0.0467547 -0.0650648 0.02 0.154354 0.0747878 0.02
0.150266 0.155991 0.02 0.0621477 -0.0966568 0.02 0.138348 0.137954 0.02 0.0972345
-0.12931 0.02 0.108561 0.125571 0.02 0.113477 -0.159317 0.02 0.0614462 0.124052
0.02 0.118682 0.152113 0.02 0.0801569 -0.000945772 0.02 0.171985 -0.144929 0.02
0.0933401 -0.0168136 0.02 0.171642 0.0148827 0.02 0.171926 0.0731134 0.02 0.156401
0.0602399 0.02 0.161942 0.122788 0.02 0.123016 -0.0806767 0.02 0.154269 0.0306552
0.02 0.171538 -0.0327603 0.02 0.171154 -0.175135 0.02 0 -0.175104 0.02
0.0153837 0.139708 0.02 0.10779 -0.159018 0.02 0.0769012 -0.127584 0.02 0.123127
0.177422 0.02 0 -0.0486967 0.02 0.170677 -0.175002 0.02 0.030773 -0.111953
0.02 0.138634 0.178245 0.02 0.0153881 0.0973805 0.02 0.151095 -0.144169 0.02
0.108886 -0.17481 0.02 0.0461761 0.0450262 0.02 0.175324 0.178976 0.02 0.0308584
0.1534 0.02 0.0975439 -0.0961491 0.02 0.154362 0.0752222 0.02 0.165707 -0.0644954
0.02 0.170392 0.171563 0.02 0.0625428 0.140548 0.02 0.117763 0.164921 0.02
0.0802817 0.177632 0.02 0.0464933 -0.15876 0.02 0.0924223 0.0956442 0.02 0.157102
-0.174576 0.02 0.0616128 0.138848 0.02 0.123066 -0.000797289 0.02 0.187164 0.137431
0.02 0.127484 -0.0166397 0.02 0.186993 0.015021 0.02 0.187152 0.0601932 0.02
0.178304 -0.0801553 0.02 0.170288 -0.127292 0.02 0.138895 0.0935604 0.02 0.164311
0.0308071 0.02 0.187002 -0.0324987 0.02 0.186723 0.109749 0.02 0.154715 -0.14375
0.02 0.124002 0.155561 0.02 0.108915 -0.190287 0.02 0 -0.111575 0.02
0.154522 -0.174341 0.02 0.0770964 -0.190252 0.02 0.0154145 0.192081 0.02 0
-0.0483322 0.02 0.186456 -0.190168 0.02 0.0308401 -0.159337 0.02 0.108678 0.192798
0.02 0.015142 0.107888 0.02 0.160863 0.0757736 0.02 0.179351 0.167558 0.02
0.0992129 -0.0957207 0.02 0.170305 -0.190031 0.02 0.046283 0.193359 0.02 0.0304075
0.186572 0.02 0.0617725 0.0451314 0.02 0.191407 0.154026 0.02 0.122375 -0.0640896
0.02 0.186272 -0.174121 0.02 0.0926298 0.191952 0.02 0.0458818 0.182046 0.02
0.0790949 0.105655 0.02 0.168241 0.152267 0.02 0.127652 -0.142678 0.02 0.139122
-0.18986 0.02 0.0617532 -0.126999 0.02 0.154697 0.150801 0.02 0.132046 0.123413
0.02 0.158982 -0.158909 0.02 0.124147 0.0908508 0.02 0.18095 0.0605345 0.02
0.193218 -0.0797642 0.02 0.186185 -0.000663263 0.02 0.202576 0.0151311 0.02 0.202574
-0.0164706 0.02 0.202486 0.170746 0.02 0.110267 -0.111233 0.02 0.170387 -0.189679
0.02 0.0772585 0.0309089 0.02 0.2025 -0.0322747 0.02 0.202338 0.121458 0.02
0.165139 -0.17406 0.02 0.108309 0.205076 0.02 0 -0.205512 0.02 0
0.205099 0.02 0.0148235 -0.205481 0.02 0.0154458 0.204553 0.02 0.0297533 0.202511
0.02 0.0448143 0.183105 0.02 0.0976458 0.198739 0.02 0.0600511 -0.205415 0.02
0.0309025 -0.048054 0.02 0.202184 -0.0953731 0.02 0.186175 0.0756224 0.02 0.195474
0.119113 0.02 0.172531 0.105845 0.02 0.18174 -0.14244 0.02 0.154866 -0.205314
0.02 0.0463754 -0.1581 0.02 0.139316 -0.189501 0.02 0.0928015 0.172722 0.02
0.121629 0.19693 0.02 0.0767081 0.0454421 0.02 0.206433 -0.0637857 0.02 0.202068
-0.126725 0.02 0.170499 -0.174089 0.02 0.124038 -0.205187 0.02 0.0618705 0.0911397
0.02 0.195716 0.186009 0.02 0.110685 -0.11094 0.02 0.186215 0.0608037 0.02
0.208112 -0.0794642 0.02 0.202003 0.215224 0.02 0.0290984 0.216771 0.02 0.014522
0.213014 0.02 0.0437438 0.217464 0.02 0 -0.000546128 0.02 0.218103 0.175966
0.02 0.129296 0.210501 0.02 0.058189 -0.189708 0.02 0.108537 0.0152247 0.02
0.218099 -0.0163223 0.02 0.218056 -0.205048 0.02 0.0773926 0.121368 0.02 0.182669
0.199005 0.02 0.094086 0.0309877 0.02 0.218051 0.174226 0.02 0.134816 -0.0320902
0.02 0.217975 0.145063 0.02 0.165918 -0.220807 0.02 0 -0.157901 0.02
0.155021 -0.220782 0.02 0.0154737 0.172775 0.02 0.139418 -0.142217 0.02 0.170619
-0.173549 0.02 0.139484 -0.220731 0.02 0.0309567 -0.0478372 0.02 0.217886 -0.0950965
0.02 0.201986 0.106373 0.02 0.196425 0.0758406 0.02 0.210351 0.210947 0.02
0.0742626 0.143041 0.02 0.172076 0.188169 0.02 0.123332 -0.204906 0.02 0.0929435
-0.126482 0.02 0.186284 -0.220655 0.02 0.0464532 0.0457602 0.02 0.221204 -0.18917
[...]
POINT_DATA 29622
FIELD attributes 1
U 3 29622 float
20 0 0 24.1067 1.49218 -0.17394 20 0 0 20 0
0 15.9932 1.71752 -0.111699 26.0103 0.942149 -0.127237 21.7995 2.22738 -0.394354
0 0 0 21.6849 1.09358 -0.0521747 9.70036 2.99287 -0.18304 0
0 0 0 0 0 20 0 0 20 0
0 26.49 0.543214 -0.477164 23.7447 2.47552 -0.680417 23.9617 0.585867 -0.474979
0 0 0 16.9132 3.6891 -0.563671 3.58093 4.62448 -0.185273 0
0 0 20 0 0 20 0 0 22.0424 2.90153
-0.635365 26.6473 0.40288 -1.34255 24.8028 0.38797 -1.31432 0 0 0
0 0 0 10.1004 4.20624 -0.721649 0 0 0 -1.58503
4.04013 -0.645961 17.176 0.00474023 0.161263 0 0 0 13.8786 -0.280652
0.251855 0 0 0 19.8909 0.126846 -0.115616 0 0 0
0 0 0 13.8366 -0.37794 1.03416 17.3214 -0.190551 0.0372612 15.0004
-0.536845 2.16134 20 0 0 20 0 0 18.7772 3.43925
-0.281895 18.3589 -0.399998 2.1734 25.3048 0.449834 -2.52071 23.3355 0.364599 -2.27592
0 0 0 19.9277 -0.0592875 -0.337763 21.2704 -0.726639 0.174459 4.31422
3.91539 -0.185673 0 0 0 21.3893 -0.381677 -0.195567 0 0
0 20.4708 -0.700804 1.011 -4.9888 2.16196 -0.180654 15.1894 -0.324675 2.07228
0 0 0 17.577 -1.17202 -0.0891054 20.9201 -0.586618 -0.517667 18.8886
-0.0668747 1.93915 19.3631 -0.266646 1.71737 20.1685 -1.06398 -0.416074 20.3209 -0.878088
0.378436 20.9427 -1.16701 -0.147601 20.915 -1.22544 -0.166455 20 0 0
20.8852 -1.25995 -0.225297 0 0 0 20.2322 -1.04536 0.0492804 0
0 0 19.0185 -1.12021 -0.166028 18.4466 0.398046 -2.17678 14.8084 3.11229
0.347055 18.627 0.5958 -2.76142 20 0 0 20.8409 -1.26699 -0.386005
0 0 0 16.2839 -0.235618 2.64097 20.8267 -1.59611 -0.572894 18.342
0.0896587 1.63797 1.08148 2.15382 0.795915 18.065 -1.76976 0.0942078 19.1916 -0.449296
0.380977 19.1901 -0.45123 0.369116 19.1811 -0.445673 0.371818 19.0686 -0.448992 0.36739
-4.90017 -0.55425 0.807008 20.3479 -1.44207 -0.824239 18.6329 0.072299 2.02139 14.2109
-0.765839 0.0349895 0 0 0 20.7812 -1.70003 -0.0472758 20.3249 -2.27409
-0.854262 0 0 0 17.6424 0.241013 1.67954 21.4035 -2.06327 -0.209546
18.0691 0.27028 0.744817 16.2804 -0.0337052 4.05582 0 0 0 20
0 0 3.38049 -0.275011 -0.0327868 3.03234 -0.1774 -0.228432 18.1163 0.231805
3.1661 12.2653 1.39294 0.865344 19.3065 -1.50972 0.235017 20 0 0
0.290332 -0.954905 1.17537 -3.13627 -2.73891 0.990842 0 0 0 3.73446
-0.104628 0.0613831 2.899 0.0742587 -0.579645 20.6383 -2.63783 -0.444417 0 0
0 17.3631 0.461623 1.23708 15.5242 0.737499 -2.06389 13.0768 0.213678 4.70819
2.89315 0.181791 -0.629587 6.02913 0.419411 -2.18193 18.68 -1.83515 -2.67191 21.7374
-1.71437 -0.0553389 16.9763 0.362144 2.32437 14.2398 0.481572 3.79325 0 0
0 0 0 0 7.98767 0.295237 0.344373 3.03478 0.10344 -0.231194
3.08463 0.146706 0.00734397 18.602 -1.37905 -0.0506672 2.54879 0.197952 -1.40907 2.95336
0.261328 0.104762 18.5551 -1.95636 -1.15247 20.2965 -2.27881 -0.29193 20 0
0 16.8324 0.450939 1.84694 0 0 0 12.0088 0.00468805 1.25291
7.61456 0.777861 0.444523 16.7308 0.977175 0.893334 0 0 0 20
0 0 21.2798 -1.55711 -0.429213 16.1424 0.456919 2.91731 15.087 0.594954
-0.545269 0 0 0 16.9087 -1.58509 -0.0324843 13.8207 0.545271 -0.111
13.9353 0.699635 0.390798 14.4568 0.639005 2.12138 16.4869 0.617948 1.66963 10.166
2.00131 1.34371 19.3978 -1.97163 -0.524287 15.8767 1.35015 1.21657 3.12301 0.291194
0.231247 16.3221 0.461568 2.06601 3.34919 0.408191 0.336688 0 0 0
3.08393 0.215518 0.162871 20 0 0 11.7554 -0.247487 1.42522 13.1228
1.20496 1.32827 20.3824 -1.65915 -1.25477 20 0 0 2.77077 0.208771
0.122419 15.6533 0.462079 2.29964 15.3731 0.494465 -0.0829378 14.9479 -1.38674 0.300829
5.2822 -2.82061 0.28745 15.2223 2.51968 2.47079 10.3352 2.90205 1.94244 16.3053
0.519349 1.78218 14.822 0.52203 0.411537 16.1302 0.77041 1.74849 18.4963 -1.93596
-0.984007 0 0 0 0 0 0 2.0322 0.100631 -0.122937
13.0586 -2.87536 -1.8307 15.0286 0.478836 1.11485 16.0511 0.419986 1.82786 15.8565
1.17771 2.01831 11.8948 1.08329 1.87677 2.88266 0.172302 0.832887 19.5442 -1.83611
-1.98677 15.691 0.403913 1.42199 10.7141 2.92566 2.21853 13.4939 -1.51382 0.158703
16.7364 1.52832 3.10859 16.4226 1.32367 2.849 0 0 0 20
0 0 15.6115 0.979082 3.06561 16.265 0.558345 1.74091 16.5526 1.66399
3.53175 20 0 0 11.885 -0.0831312 1.31035 0 0 0
15.6293 0.409335 0.107286 16.1699 0.761074 2.00271 17.3131 -1.90698 -1.33193 16.2372
0.413357 1.66011 6.14265 -2.79884 0.109401 16.3466 1.28399 3.07089 15.451 0.41863
0.415458 12.3057 -3.02258 -2.01983 10.9402 -0.12922 1.45686 15.6059 0.388809 0.835623
16.0752 0.363375 1.45118 16.3925 0.829627 2.38485 18.7515 -1.76849 -2.31744 0
0 0 12.1544 -1.46788 0.0310168 16.3609 0.414553 1.64315 16.3575 0.529219
1.8222 15.9361 0.347072 1.11518 13.7595 1.06536 3.56972 16.9619 1.02455 2.79537
11.414 1.19115 2.10481 16.9731 1.01888 2.7411 16.723 0.940707 3.0761 16.2844
0.682059 3.6672 16.8229 0.949154 2.78308 16.1066 -1.72718 -1.44232 16.31 0.343129
1.44796 10.1383 2.03124 1.9779 20 0 0 16.4625 0.619006 2.13377
15.3647 0.834928 4.03506 15.9477 0.337077 0.161287 20 0 0 12.4346
0.0981568 1.05396 0 0 0 16.6805 0.77396 2.61954 10.5559 -0.311589
1.25934 16.2644 0.599302 4.10749 16.2169 0.314432 1.21681 15.8833 0.34018 0.392499
0 0 0 7.8529 -2.41904 -0.073321 15.995 0.317052 0.662039 16.4992
0.394481 1.67658 12.9928 -2.6387 -2.01615 16.6709 0.602794 2.33834 14.0704 1.27562
3.70941 18.2382 -1.57747 -2.3707 16.5694 0.451392 1.89682 11.1774 -1.40416 0.0269714
16.4777 0.327538 1.47247 11.3201 0.808995 1.90591 16.1941 0.291332 0.877064 9.66868
1.31072 1.83813 15.1822 -1.61287 -1.4429 17.0866 0.710744 2.87871 16.4318 0.28936
1.25986 17.0673 0.696193 2.76959 17.031 0.731046 3.0416 16.1277 0.993337 4.14062
16.6581 0.723444 3.95222 0 0 0 16.7168 0.471467 2.11565 16.9827
0.723356 3.28535 16.9734 0.652106 2.65439 20 0 0 16.2273 0.280491
0.167574 10.3504 -0.584244 1.07074 16.3922 0.268 1.0127 16.6226 0.311015 1.51463
20 0 0 16.8959 0.554751 2.46641 16.2073 0.28311 0.352457 16.6759
0.350044 1.71481 13.0339 0.16895 0.808784 0 0 0 16.5984 0.270804
1.3093 16.3036 0.26425 0.553196 17.0513 0.71095 3.46021 9.56714 -2.08368 -0.306376
10.5254 -1.6004 -0.0749093 16.7792 0.367667 1.90901 16.6693 0.790826 3.90996 16.8882
0.452109 2.25937 17.8419 -1.44986 -2.35279 11.0049 0.224437 1.82802 14.5218 -1.67642
-1.36514 13.8966 -2.23574 -2.0756 16.5658 0.248191 1.0952 14.329 1.44683 3.8089
16.437 0.245986 0.727612 8.82637 0.362348 1.83778 17.1803 0.513781 2.75772 0
0 0 17.167 0.495233 2.65142 17.1609 0.543401 2.89564 17.1903 0.747739
3.53346 16.9169 0.367275 2.07028 16.7793 0.280202 1.549 16.4488 1.07497 4.08246
17.1531 0.570806 3.05676 17.1226 0.460823 2.52999 0 0 0 16.7429
0.253252 1.35856 10.0171 -1.00373 0.922832 20 0 0 16.8561 0.295383
1.73117 16.5803 0.228295 0.858794 16.4765 0.235119 0.156531 20 0 0
17.0852 0.405058 2.36812 16.4681 0.238305 0.311998 16.7219 0.229071 1.15813 13.5185
0.183965 0.611916 14.4971 1.58838 3.90935 17.1963 0.793632 3.64133 10.0986 -1.73601
-0.0410017 16.9626 0.29901 1.89283 16.5509 0.222394 0.47257 10.739 -1.8691 -0.470864
17.6927 -1.43277 -2.33839 17.2099 0.585557 3.20099 10.4044 -0.35896 1.76378 17.0772
0.345413 2.19422 16.7181 0.212198 0.953583 14.4737 -2.0079 -2.11626 14.3097 -1.84304
-1.34559 16.5067 1.21909 4.18644 7.98216 -0.218164 1.77628 16.8822 0.231793 1.39975
16.6504 0.20874 0.618217 16.9376 0.241979 1.57148 0 0 0 0
0 0 16.8571 0.213912 1.21631 17.0927 0.85468 3.79123 17.2892 0.634866
3.33504 17.0927 0.292342 2.02737 17.2938 0.400375 2.63928 17.296 0.428527 2.76926
17.2786 0.3764 2.52697 9.75494 -1.12233 0.878977 17.0213 0.247463 1.73202 16.7585
0.195135 0.738786 17.3034 0.455006 2.90858 17.2543 0.345754 2.40747 14.7074 1.58733
4.10319 16.8488 0.196821 1.02732 20 0 0 20 0 0
13.8965 0.171317 0.469067 16.6941 0.199064 0.141367 11.5645 -1.73719 -0.562641 14.9421
-1.87993 -2.1231 10.0722 -1.88605 -0.167121 17.7979 -1.47353 -2.36468 16.6871 0.203187
0.274751 17.236 0.309003 2.27073 17.1251 0.247036 1.86971 17.338 0.691938 3.44574
16.5471 1.2047 4.3734 17.0252 0.927563 3.94994 17.0229 0.202858 1.42868 16.7601
0.18941 0.409967 16.9835 0.196373 1.26387 16.8692 0.182509 0.834872 10.7272 -0.459782
1.60633 14.6047 -1.86672 -1.43049 17.3454 0.473037 3.02714 17.2327 0.271623 2.12565
17.0869 0.208084 1.58479 16.9701 0.184368 1.09001 16.8387 0.178635 0.535592 17.3324
0.761027 3.58135 9.6967 -0.968891 0.682066 17.1698 0.210552 1.72391 17.3935 0.508039
3.13347 17.2443 0.237087 1.98109 12.3602 -1.6334 -0.601357 14.2209 0.129508 0.365551
15.4257 -1.74593 -2.0557 20 0 0 17.4112 0.316903 2.54528 10.3943
0.345072 1.86632 17.918 -1.44201 -2.21471 16.9792 0.170225 0.912968 17.4215 0.341962
2.66402 17.3956 0.294712 2.43222 16.9236 0.167868 0.644877 16.9402 0.996416 4.20197
10.6187 -1.53853 -0.614809 17.4345 0.366532 2.78287 7.92445 1.09698 1.63538 17.3787
0.27024 2.31482 0 0 0 20 0 0 17.1101 0.173146
1.29984 16.8853 0.170211 0.126128 0 0 0 17.1576 0.177968 1.45103
17.085 0.169338 1.14183 16.8761 0.175172 0.242438 17.3678 0.244103 2.19085 17.2688
0.206472 1.8415 17.313 0.826055 3.74159 17.4296 0.549165 3.23161 14.9763 -1.48896
-1.49592 14.9783 1.64397 4.35954 10.8311 0.391463 1.35016 17.0131 0.158203 0.737357
17.2227 0.181631 1.589 16.941 0.16296 0.359474 17.4687 0.382595 2.88305 17.0829
0.160888 0.979196 17.3672 0.218307 2.0632 17.9478 -1.28495 -1.946 16.0181 -1.60511
-1.93755 16.7358 1.23394 4.54606 13.1182 -1.57466 -0.625377 17.0056 0.154147 0.470011
14.5314 0.0505455 0.273459 17.4444 0.607936 3.3567 9.618 0.191568 0.00126182 20
0 0 17.3038 0.180465 1.70955 17.2719 0.899557 3.9521 9.99318 2.25861
1.3602 17.5091 0.406712 2.98056 17.3772 0.194283 1.93578 17.104 0.148664 0.81568
0 0 0 17.2317 0.154482 1.32939 17.1986 0.150075 1.18374 5.88827
3.41591 0.751089 17.0744 0.145539 0.569244 17.5222 0.25148 2.45598 17.5355 0.272348
2.56431 17.5083 0.233002 2.34878 11.0713 0.109391 -1.59016 17.2814 0.158725 1.46467
17.1861 0.147883 1.0337 15.1354 1.72495 4.54041 0 0 0 15.1691
-0.532148 -1.87541 17.5519 0.293944 2.67175 17.4959 0.214235 2.2389 20 0
0 17.453 0.674268 3.50503 17.0539 0.147594 0.111947 17.5397 0.441295 3.08347
17.3973 0.172598 1.81137 17.042 0.152998 0.214619 17.347 0.159031 1.5858 17.4889
0.195286 2.12575 10.277 2.27833 0.528814 16.7792 1.34094 4.732 17.1479 0.138087
0.656255 17.1946 0.141352 0.88211 17.2119 0.983485 4.17852 17.5832 0.30918 2.7666
17.1006 0.141834 0.317831 16.5488 -1.51156 -1.67401 17.4895 0.177025 2.01091 13.8764
-1.57014 -0.612562 18.1513 -1.01489 -1.48737 17.5567 0.485955 3.20014 17.3085 0.135889
1.2188 14.8478 -0.0558719 0.183479 17.155 0.134342 0.416578 17.4613 0.748352 3.67366
0 0 0 17.3446 0.140311 1.35023 20 0 0 17.4262
0.153743 1.69186 17.2877 0.131655 1.07944 7.11472 4.53879 1.26592 17.2243 0.130427
0.732136 17.6196 0.328782 2.86114 17.4986 0.159864 1.89631 9.18584 3.40391 -1.95331
17.3965 0.141448 1.47022 0.977204 5.20194 0.385024 15.3784 1.74232 4.73241 17.2857
0.130584 0.938166 17.2119 0.127291 0.507114 0 0 0 11.7829 3.45542
-3.94284 17.626 0.201282 2.37778 17.1944 1.0602 4.36493 17.5711 0.537084 3.3294
17.6409 0.2176 2.47784 17.6132 0.186584 2.27692 15.9286 0.666945 -2.07133 16.8675
1.37448 4.88297 17.6487 0.357605 2.9629 17.6032 0.17234 2.17491 20 0
0 17.4625 0.137681 1.5782 17.5156 0.144245 1.78393 17.204 0.13119 0.0984621
17.6613 0.233642 2.57509 17.4695 0.822683 3.8581 17.3026 0.125515 0.797589 17.1905
0.136043 0.190323 17.2731 0.121452 0.588145 17.598 0.158501 2.0713 17.411 0.12535
1.24534 17.3864 0.12089 1.11872 17.6879 0.24888 2.66938 17.2441 0.125206 0.28301
17.4506 0.126879 1.36288 17.6698 0.391846 3.0711 17.3761 0.116724 0.986277 17.5922
0.595097 3.4716 17.599 0.145305 1.96683 17.5403 0.130469 1.67483 14.5958 -1.60002
-0.507245 8.77943 5.36394 -1.1942 13.9515 4.86567 -4.29385 17.0719 -1.45547 -1.21311
15.1573 -0.17149 0.124458 17.2903 0.118281 0.37254 20 0 0 17.3379
0.11527 0.660604 17.5048 0.124057 1.47117 17.1807 1.15044 4.60586 17.721 0.264749
2.75969 17.3826 0.116639 0.853978 18.4377 -0.809696 -0.658029 17.6068 0.132993 1.86266
17.4922 0.888754 4.05292 17.6908 0.429318 3.18573 17.338 0.112132 0.455439 0
0 0 0 0 0 17.7484 0.28876 2.85796 17.6219 0.658433
3.627 17.7227 0.16292 2.31105 17.5712 0.11843 1.57032 17.4782 0.112938 1.15057
17.738 0.175156 2.40485 17.7103 0.151833 2.21621 17.5073 0.114719 1.26499 17.4059
0.113027 0.724315 17.4638 0.108649 1.02971 17.6215 0.121771 1.75976 17.7013 0.141269
2.12096 16.9572 1.15045 -0.994536 20 0 0 15.7187 1.71061 4.9553
5.11973 6.08952 1.33866 17.3394 0.119364 0.0850428 17.7583 0.187807 2.49634 17.3891
0.107262 0.530643 0 0 0 17.5505 0.112477 1.37196 17.3252 0.123027
0.168471 17.697 0.131066 2.02504 17.462 0.104586 0.90418 0.611402 6.25851 2.37222
17.7169 0.471314 3.3086 17.7736 0.31508 2.95778 17.7828 0.200582 2.58662 17.1118
1.33579 4.97918 -2.69579 6.14607 1.37808 17.375 0.111995 0.253669 17.5055 0.963297
4.27882 0 0 0 17.6982 0.121431 1.9288 17.6425 0.111704 1.6595
17.6065 0.108009 1.47233 17.6602 0.721921 3.79103 17.4444 0.10246 0.598982 15.2149
4.11408 -2.46564 17.476 0.105689 0.780651 17.4149 0.104638 0.336797 17.8123 0.214098
2.67445 15.3781 -0.25523 0.134059 20 0 0 0 0 0
14.9651 -1.59825 -0.287839 17.8011 0.343045 3.0609 17.7055 0.11259 1.83275 17.5649
0.104383 1.17652 17.5459 0.102368 1.06653 0 0 0 17.0054 -1.43464
-0.671329 17.7487 0.51893 3.44012 17.4547 0.0989437 0.412408 17.5993 0.102562 1.28164
17.5391 0.0986138 0.950872 17.8396 0.232695 2.76674 6.91767 2.68425 -1.89453 17.668
0.102733 1.56378 15.9408 1.68232 5.08412 18.4681 -0.716159 0.0924207 17.5035 0.102691
0.660201 -0.762017 -0.34627 -0.594396 17.8135 0.133842 2.2521 17.8284 0.142848 2.34123
17.8016 0.125857 2.16268 17.7185 0.104555 1.73774 17.5147 1.03518 4.50347 17.6446
0.0990466 1.3816 0 0 0 17.5459 0.0945748 0.833257 17.8467 0.152967
2.42948 17.7932 0.118217 2.07332 20 0 0 17.2482 1.34788 5.12117
17.4979 0.0950529 0.482051 17.7048 0.783918 3.95962 17.8323 0.374473 3.17014 17.4578
0.103779 0.0724143 17.8679 0.252589 2.85916 17.4467 0.109002 0.149066 17.7894 0.110855
1.98437 17.4739 1.1305 0.19947 17.87 0.162783 2.51521 17.7884 0.568923 3.57478
0 0 0 17.4913 0.0987426 0.228729 17.6979 0.0947831 1.47399 17.7359
0.0972655 1.64581 17.6249 0.095398 1.09299 17.5633 0.0955773 0.71755 17.791 0.10393
1.89498 0 0 0 17.6456 0.0951984 1.20065 17.5451 0.0917977 0.545703
17.6086 0.0940936 0.99144 17.8964 0.174176 2.60107 17.5226 0.0928089 0.30271 0
0 0 17.8999 0.273403 2.95328 17.8673 0.4096 3.28413 17.6871 0.0914392
1.29458 15.3313 3.39983 -0.968688 17.6144 0.0903339 0.877383 17.798 0.0974929 1.80617
20 0 0 16.2312 1.61451 5.16991 15.5084 -0.27067 0.152988 17.5793
1.07407 4.66004 17.9238 0.188005 2.68748 17.7578 0.840649 4.13163 17.5406 0.0896643
0.383397 17.7567 0.0906318 1.55866 15.0881 -1.51477 -0.0412769 17.5954 0.090092 0.60291
17.7278 0.0888898 1.39238 17.8394 0.619143 3.7128 17.4224 1.32255 5.17486 16.6196
-1.41145 -0.226272 17.622 0.0858181 0.769458 6.46639 2.70429 -1.28929 17.8093 0.0915262
1.71865 17.9345 0.297593 3.05269 17.9016 0.110878 2.19876 17.9159 0.117105 2.28325
17.8899 0.106027 2.11453 -1.65171 -0.484138 -0.401629 17.589 0.0857899 0.444973 17.9549
0.202181 2.77233 18.1755 -0.696001 0.588098 17.9331 0.124788 2.36749 17.8811 0.100803
2.03104 20 0 0 17.9093 0.445935 3.39929 17.5726 0.0781683 0.0617398
0 0 0 17.6894 0.0894318 1.10968 17.6747 0.0890729 1.03106 17.5579
0.0871157 0.13281 17.9538 0.13305 2.45112 17.8774 0.0951775 1.94837 17.7245 0.0862685
1.22858 17.7827 0.0847496 1.47362 17.6698 0.0871972 0.905133 17.6497 0.0807083 0.657094
17.8246 0.0858974 1.63343 17.6003 0.079562 0.202923 17.5714 1.02375 1.05464 17.6207
0.0844951 0.509615 17.9776 0.142245 2.53461 17.8791 0.0900498 1.86505 17.973 0.323772
3.15336 17.755 0.0846026 1.30212 17.835 0.885157 4.29645 17.9891 0.217828 2.85984
17.6641 1.11799 4.83304 17.6744 0.0846819 0.824401 17.6268 0.0777147 0.253613 17.9038
0.668597 3.85533 18.0047 0.152191 2.61647 17.8851 0.0852635 1.78264 17.9602 0.483288
3.51647 15.303 2.96444 0.150387 17.8399 0.0816141 1.55568 17.8079 0.0806442 1.40751
20 0 0 17.6761 0.0809613 0.561037 17.6962 0.0749092 0.693604 15.6743
-0.227979 0.147351 18.0251 0.236204 2.95112 17.7532 0.0820525 1.04213 15.2852 -1.43876
0.0784071 0 0 0 17.8951 0.0808995 1.70192 18.0179 0.350157 3.25391
6.52416 2.40458 -0.365633 18.0372 0.161778 2.695 17.9834 0.0975304 2.15285 16.4848
-1.35474 0.0734651 17.9972 0.100488 2.23215 17.9713 0.0937943 2.07383 17.8049 0.0788045
1.22876 16.6023 1.51955 5.21465 17.7432 0.080396 0.847577 -0.831088 -1.07071 0.157986
18.0139 0.105373 2.31148 17.9623 0.0887361 1.99867 20 0 0 17.65
0.0671263 0.0575729 17.9147 0.931796 4.47188 17.851 0.0786179 1.47118 17.981 0.713863
3.99404 17.8574 -0.674948 0.962386 0 0 0 17.6519 0.0752006 0.12366
17.7168 0.0742752 0.615162 18.0339 0.111252 2.39059 17.9451 0.0847534 1.92223 17.7179
1.24271 5.12925 17.9087 0.0769273 1.62131 18.0658 0.255252 3.04113 18.02 0.522305
3.63553 18.0712 0.173968 2.77824 17.6809 0.0713287 0.187116 18.0571 0.117647 2.46936
17.9548 0.0798781 1.83989 17.5556 0.882229 1.65801 18.0689 0.377998 3.35599 17.7181
0.0713938 0.241347 18.0837 0.124528 2.5477 17.8884 0.0739596 1.39633 17.9513 0.0771269
1.76436 17.9227 0.0740537 1.55823 17.7743 0.0721869 0.650833 18.108 0.187371 2.86196
0 0 0 15.328 2.5879 0.974094 18.1125 0.274486 3.13047 20
0 0 18.0651 0.755171 4.12256 16.7862 1.47176 5.17639 17.9898 0.976063
4.62418 15.726 -0.290306 0.149694 18.1142 0.132062 2.62509 17.9687 0.0732796 1.68539
18.089 0.560002 3.74879 15.3553 -1.41765 0.125508 17.7834 0.0723661 0.371961 6.91671
1.89552 0.292128 18.063 0.0809184 2.11475 18.0759 0.0846186 2.18756 18.0523 0.0770596
2.0386 17.8858 1.23328 5.12867 18.1256 0.4073 3.4579 16.2687 -1.31734 0.255102
18.0919 0.0885718 2.26197 18.0469 0.075933 1.97676 0.233467 -1.61186 0.462453 18.1502
0.200521 2.94302 18.1479 0.140851 2.70417 17.9727 0.0713402 1.6104 0 0
0 18.1113 0.0927916 2.33602 17.5407 -0.682018 1.20267 18.1633 0.295808 3.22211
17.9027 0.0672143 1.08314 17.8769 0.069758 0.910542 18.134 0.0971631 2.41009 17.5052
0.711553 2.0325 0 0 0 18.1852 0.150052 2.78245 18.1514 0.791309
4.23858 17.9963 0.0682455 1.53742 18.1666 0.595878 3.85565 18.1597 0.101983 2.48448
18.197 0.214649 3.0249 18.0868 0.996059 4.69352 17.8498 0.0683831 0.47675 18.1895
0.435835 3.55488 17.9606 0.0647652 1.24461 16.9352 1.3989 5.10517 17.8857 0.0685867
0.736154 15.3871 2.22032 1.56035 18.219 0.317616 3.3116 18.1897 0.107414 2.55669
18.0078 1.20048 5.07542 20 0 0 15.7595 -0.344126 0.156737 7.457
1.4579 0.755218 18.228 0.158518 2.85652 15.3772 -1.41261 0.155435 18.1332 0.0659156
2.0781 18.1383 0.0711885 2.15361 18.1155 0.0643881 2.01028 18.2467 0.230822 3.10852
20 0 0 18.1619 0.0742215 2.22031 18.1165 0.0664101 1.93792 1.37591
-1.89641 0.646479 16.0052 -1.30178 0.360621 18.2242 0.113472 2.63049 17.8505 0.06517
0.110593 0 0 0 18.1729 0.078765 2.29628 18.2509 0.630476 3.95811
18.244 0.81858 4.33537 18.2598 0.463976 3.64775 17.1936 -0.715596 1.31616 18.2035
0.0806306 2.36205 18.1145 0.0626653 1.78307 18.1657 1.02424 4.77745 18.0426 0.0613863
1.38693 18.2805 0.338761 3.3969 18.2733 0.169202 2.93408 17.9276 0.0636157 0.567355
17.8986 0.0645957 0.218239 18.2612 0.119884 2.70509 17.4185 0.543649 2.22451 18.2205
0.0857437 2.43879 18.3014 0.246628 3.18827 17.9957 0.0599305 0.958781 15.5383 1.8858
1.96795 18.2643 0.0861261 2.50072 18.1216 0.059655 1.64318 18.0326 0.0589151 1.11316
18.3011 0.12664 2.77889 17.9883 0.06171 0.79946 0 0 0 17.9427
0.0618829 0.320081 18.322 0.180672 3.01031 20 0 0 18.3364 0.662147
4.05052 18.3337 0.493111 3.73746 15.7917 -0.399803 0.159276 8.40446 1.12231 1.15075
18.3203 0.851229 4.44052 17.1 1.30866 5.01176 18.3459 0.360523 3.48001 15.3743
-1.41658 0.168186 2.7816 -1.99014 0.822644 18.299 0.0887935 2.5652 15.7231 -1.29866
0.404915 0 0 0 18.1763 1.11872 4.94723 18.3613 0.262071 3.26475
18.3445 0.1344 2.85247 16.8267 -0.759678 1.33634 18.0936 0.0569415 1.25424 18.0101
0.0606792 0.643407 18.3342 0.0934763 2.63578 18.376 0.191337 3.08198 18.1424 0.0566719
1.50821 17.995 0.0589496 0.413687 17.3093 0.381418 2.27955 18.4084 0.521323 3.8183
18.4139 0.692142 4.13369 18.4129 0.383126 3.55973 0 0 0 18.392
0.142208 2.92325 15.7592 1.60357 2.22814 18.3753 0.88521 4.53837 18.3482 0.068588