# vtk DataFile Version 2.0
sampleSurface
ASCII
DATASET POLYDATA
POINTS 4972 float
4 2.90752e-06 0 4 -0.0312483 0 4 2.85017e-06 0.0312519 4 0.031254
0 4 -0.0312483 0.0312519 4 0.031254 0.0312519 4 -0.0624994 0
4 2.75539e-06 0.0625039 4 0.062505 0 4 -0.0624995 0.0312519 4
-0.0312484 0.0625039 4 0.0312539 0.0625038 4 0.062505 0.0312519 4 -0.0624996
0.0625038 4 0.0625049 0.0625038 4 -0.0937506 0 4 2.62364e-06 0.0937558
4 0.093756 0 4 -0.0937506 0.0312519 4 -0.0312486 0.0937557 4
0.0937559 0.0312518 4 0.0312537 0.0937557 4 -0.0937507 0.0625037 4 -0.0624998
0.0937557 4 0.0937558 0.0625036 4 0.0625048 0.0937556 4 -0.125002 0
4 0.125007 0 4 2.45461e-06 0.125008 4 -0.125002 0.0312518 4
0.125007 0.0312518 4 -0.0312487 0.125008 4 0.0312536 0.125008 4 -0.0937509
0.0937555 4 0.0937557 0.0937554 4 -0.125002 0.0625035 4 -0.0624999 0.125007
4 0.125007 0.0625035 4 0.0625046 0.125007 4 -0.156253 0 4
-0.125002 0.0937553 4 -0.0937511 0.125007 4 0.156257 0 4 0.125006
0.0937552 4 0.0937555 0.125007 4 2.2494e-06 0.156259 4 -0.156253 0.0312517
4 0.156257 0.0312517 4 -0.031249 0.156259 4 0.0312534 0.156259 4
-0.156253 0.0625034 4 0.156257 0.0625033 4 -0.0625002 0.156259 4 0.0625044
0.156259 4 -0.125002 0.125007 4 0.125006 0.125007 4 -0.156253 0.093755
4 -0.0937514 0.156259 4 0.156257 0.0937549 4 0.0937553 0.156259 4
-0.187503 0 4 0.187508 0 4 2.0071e-06 0.187511 4 -0.187503
0.0312516 4 0.187508 0.0312516 4 -0.0312492 0.187511 4 0.0312532 0.187511
4 -0.187504 0.0625032 4 0.187508 0.0625031 4 -0.0625005 0.187511 4
0.0625042 0.187511 4 -0.156253 0.125007 4 -0.125002 0.156259 4 0.156257
0.125007 4 0.125006 0.156259 4 -0.187504 0.0937547 4 0.187507 0.0937546
4 -0.0937517 0.187511 4 0.0937551 0.187511 4 -0.218754 0 4
0.218758 0 4 1.73283e-06 0.218763 4 -0.218754 0.0312515 4 0.218758
0.0312515 4 -0.156253 0.156258 4 0.156257 0.156258 4 -0.0312495 0.218763
4 0.0312529 0.218763 4 -0.187504 0.125006 4 0.187507 0.125006 4
-0.125003 0.18751 4 0.125006 0.18751 4 -0.218754 0.0625029 4 0.218758
0.0625029 4 -0.0625008 0.218763 4 0.0625039 0.218763 4 -0.218754 0.0937544
4 0.218758 0.0937543 4 -0.093752 0.218762 4 0.0937549 0.218762 4
-0.187504 0.156258 4 -0.156254 0.18751 4 0.187507 0.156258 4 0.156257
0.18751 4 -0.250004 0 4 0.250008 0 4 1.43381e-06 0.250015
4 -0.250005 0.0312514 4 -0.218755 0.125006 4 0.250008 0.0312513 4
0.218758 0.125006 4 -0.125003 0.218762 4 0.125006 0.218762 4 -0.0312498
0.250015 4 0.0312526 0.250014 4 -0.250005 0.0625027 4 0.250008 0.0625027
4 -0.0625011 0.250014 4 0.0625037 0.250014 4 -0.187505 0.187509 4
0.187507 0.187509 4 -0.250005 0.093754 4 0.250008 0.093754 4 -0.0937523
0.250014 4 0.0937546 0.250014 4 -0.218755 0.156257 4 0.218757 0.156257
4 -0.156254 0.218761 4 0.156256 0.218761 4 -0.250005 0.125005 4
0.250008 0.125005 4 -0.125003 0.250014 4 0.125005 0.250013 4 -0.281255
0 4 0.281258 0 4 1.11352e-06 0.281266 4 -0.281255 0.0312512
4 0.281258 0.0312512 4 -0.0312501 0.281266 4 0.0312523 0.281266 4
-0.281255 0.0625025 4 0.281258 0.0625024 4 -0.218755 0.187509 4 0.218757
0.187508 4 -0.187505 0.218761 4 0.187507 0.21876 4 -0.0625014 0.281266
4 0.0625033 0.281266 4 0.0815282 0.281265 4 0.0625033 0.286625 4
0.0937543 0.278097 4 -0.250005 0.156257 4 0.250008 0.156256 4 -0.156254
0.250013 4 0.156256 0.250012 4 -0.281255 0.0937537 4 0.281258 0.0937536
4 -0.0937526 0.281266 4 0.0937542 0.281265 4 0.0312521 0.295659 4
0.125005 0.27035 4 8.6292e-07 0.304749 4 0.156256 0.262911 4 -0.281255
0.125005 4 0.281258 0.125005 4 0.125005 0.281264 4 -0.125004 0.281265
4 -0.218756 0.21876 4 0.218757 0.21876 4 -0.312505 0 4
0.312508 0 4 -0.250006 0.187508 4 0.250007 0.187508 4 -0.187505
0.250012 4 0.187506 0.250012 4 7.80021e-07 0.312517 4 -0.0269853 0.312517
4 -0.312505 0.0312511 4 0.312508 0.0312511 4 0.0312519 0.312517 4
-0.0312505 0.312517 4 -0.0312505 0.313916 4 0.187506 0.255809 4 -0.312505
0.0625022 4 0.312508 0.0625022 4 0.062503 0.312517 4 -0.0625017 0.312517
4 -0.281256 0.156256 4 0.281258 0.156256 4 0.156256 0.281264 4
-0.156255 0.281264 4 -0.312505 0.0937533 4 0.312508 0.0937532 4 0.0937539
0.312516 4 -0.093753 0.312517 4 0.214502 0.250011 4 -0.0625018 0.323793
4 0.218757 0.249112 4 -0.250006 0.218759 4 0.250007 0.218759 4
-0.218756 0.250011 4 0.218757 0.250011 4 -0.312505 0.125004 4 0.312508
0.125004 4 0.125005 0.312515 4 -0.125004 0.312516 4 -0.281256 0.187507
4 0.281257 0.187507 4 0.187506 0.281263 4 -0.187506 0.281263 4
-0.343755 0 4 0.343758 0 4 4.42059e-07 0.343769 4 -0.343755
0.031251 4 0.343758 0.031251 4 0.0312516 0.343768 4 -0.0312508 0.343769
4 -0.0937532 0.33293 4 0.250007 0.243101 4 -0.343755 0.062502 4
-0.312506 0.156255 4 0.343758 0.0625019 4 0.312507 0.156255 4 0.156255
0.312515 4 -0.156255 0.312515 4 0.0625026 0.343768 4 -0.062502 0.343768
4 0.250007 0.25001 4 -0.250007 0.25001 4 -0.343755 0.0937529 4
0.343758 0.0937529 4 -0.281256 0.218758 4 0.281257 0.218758 4 0.218756
0.281262 4 -0.218756 0.281262 4 0.0937535 0.343767 4 -0.0937533 0.343768
4 -0.125004 0.341229 4 -0.312506 0.187506 4 0.312507 0.187506 4
0.187506 0.312514 4 -0.187506 0.312515 4 -0.343755 0.125004 4 0.343757
0.125004 4 0.125004 0.343766 4 -0.125004 0.343767 4 0.281257 0.237336
4 -0.135979 0.343767 4 -0.375004 0 4 0.375008 0 4
1.09444e-07 0.375019 4 -0.375005 0.0312509 4 0.375007 0.0312509 4 0.281257
0.250009 4 -0.281257 0.250009 4 0.250006 0.281261 4 -0.250007 0.281261
4 0.0312512 0.375019 4 -0.0312511 0.375019 4 -0.343756 0.156255 4
0.343757 0.156255 4 0.156255 0.343765 4 -0.156256 0.343766 4 -0.375005
0.0625017 4 0.375007 0.0625017 4 0.0625022 0.375019 4 -0.0625023 0.375019
4 -0.312506 0.218758 4 0.312507 0.218757 4 0.218756 0.312513 4
-0.218757 0.312514 4 -0.156256 0.349389 4 -0.375005 0.0937526 4 0.375007
0.0937525 4 0.0937531 0.375018 4 -0.0937536 0.375019 4 0.312507 0.231749
4 -0.343756 0.187506 4 0.343757 0.187506 4 0.187505 0.343764 4
-0.187506 0.343765 4 -0.375005 0.125003 4 0.375007 0.125003 4 0.125004
0.375017 4 -0.125005 0.375018 4 0.281256 0.28126 4 -0.281257 0.28126
4 0.312507 0.250008 4 -0.312507 0.250008 4 0.250006 0.312512 4
-0.250007 0.312512 4 -0.187507 0.356711 4 -0.406254 0 4 -0.375005
0.156254 4 0.406257 0 4 0.375007 0.156254 4 0.156254 0.375016
4 -0.156256 0.375017 4 -2.07883e-07 0.40627 4 -0.406254 0.0312508 4
0.406257 0.0312507 4 -0.343756 0.218757 4 0.343757 0.218756 4 0.218756
0.343763 4 -0.218757 0.343764 4 0.0312509 0.40627 4 -0.0312514 0.40627
4 -0.406254 0.0625015 4 0.406257 0.0625015 4 0.0625019 0.406269 4
-0.0625026 0.40627 4 0.343757 0.226278 4 -0.406254 0.0937522 4 0.406257
0.0937522 4 0.0937527 0.406268 4 -0.0937538 0.406269 4 -0.375006 0.187505
4 0.375007 0.187505 4 0.187505 0.375015 4 -0.187507 0.375016 4
0.312506 0.281259 4 -0.312507 0.281259 4 0.281256 0.31251 4 -0.281258
0.312511 4 -0.218757 0.362686 4 -0.406255 0.125003 4 0.406257 0.125003
4 0.343757 0.250007 4 -0.343757 0.250008 4 0.250006 0.343762 4
-0.250008 0.343763 4 0.125003 0.406267 4 -0.125005 0.406269 4 -0.375006
0.218756 4 0.375006 0.218756 4 0.218755 0.375014 4 -0.218757 0.375015
4 0.375006 0.220884 4 -0.406255 0.156254 4 0.406257 0.156254 4
0.156254 0.406266 4 -0.156256 0.406268 4 -0.437504 0 4 0.437507
0 4 -4.97918e-07 0.43752 4 -0.437504 0.0312506 4 0.437507 0.0312506
4 0.0312506 0.43752 4 -0.0312516 0.43752 4 -0.437504 0.0625013 4
0.437506 0.0625013 4 0.312506 0.312509 4 -0.312508 0.31251 4 0.0625015
0.437519 4 -0.0625028 0.43752 4 0.343756 0.281258 4 -0.343757 0.281258
4 0.281256 0.343761 4 -0.281258 0.343762 4 -0.250008 0.367245 4
0.388542 0.218755 4 -0.437504 0.0937519 4 -0.406255 0.187504 4 0.437506
0.0937519 4 0.406256 0.187504 4 0.187504 0.406265 4 -0.187507 0.406267
4 0.0937523 0.437518 4 -0.093754 0.43752 4 0.375006 0.250006 4
-0.375006 0.250007 4 0.250005 0.375013 4 -0.250008 0.375014 4 -0.437504
0.125003 4 0.437506 0.125003 4 0.125003 0.437517 4 -0.125005 0.437519
4 0.406256 0.215628 4 -0.406256 0.218755 4 0.406256 0.218755 4
0.218755 0.406264 4 -0.218758 0.406266 4 -0.437504 0.156253 4 0.437506
0.156253 4 0.343756 0.312508 4 0.312506 0.34376 4 -0.343757 0.312509
4 -0.312508 0.343761 4 0.156253 0.437516 4 -0.156256 0.437518 4
-0.281258 0.370302 4 -0.468753 0 4 0.468756 0 4 0.375006
0.281257 4 -0.375007 0.281257 4 0.281255 0.375011 4 -0.281258 0.375013
4 -7.52289e-07 0.46877 4 -0.468753 0.0312506 4 0.468756 0.0312505 4
0.0312503 0.46877 4 -0.0312518 0.46877 4 -0.468753 0.0625011 4 0.468756
0.0625011 4 0.0625012 0.468769 4 -0.062503 0.46877 4 -0.437505 0.187504
4 0.437506 0.187504 4 0.187504 0.437515 4 -0.187507 0.437517 4
0.406256 0.250005 4 -0.406256 0.250006 4 0.250005 0.406263 4 -0.250008
0.406265 4 -0.468753 0.0937516 4 0.468756 0.0937516 4 0.0937519 0.468768
4 -0.0937541 0.468769 4 -0.468753 0.125002 4 0.468756 0.125002 4
0.125003 0.468767 4 -0.125005 0.468769 4 0.437506 0.210501 4 -0.312508
0.371724 4 0.343755 0.343759 4 -0.343758 0.34376 4 0.375006 0.312507
4 -0.375007 0.312508 4 0.312505 0.37501 4 -0.312508 0.375012 4
-0.437505 0.218754 4 0.437506 0.218754 4 0.218754 0.437514 4 -0.218758
0.437516 4 -0.468754 0.156253 4 0.468756 0.156253 4 0.406256 0.281256
4 -0.406256 0.281257 4 0.281255 0.406262 4 -0.281258 0.406263 4
0.156253 0.468766 4 -0.156256 0.468768 4 -0.500002 0 4 0.500006
0 4 -9.63934e-07 0.50002 4 -0.500002 0.0312505 4 0.500006 0.0312505
4 0.03125 0.500019 4 -0.031252 0.50002 4 -0.500003 0.0625009 4
0.500006 0.0625009 4 -0.437505 0.250005 4 0.437506 0.250005 4 0.250004
0.437513 4 -0.250008 0.437515 4 0.0625008 0.500019 4 -0.0625031 0.500019
4 -0.468754 0.187503 4 0.468756 0.187503 4 0.187503 0.468765 4
-0.187507 0.468767 4 -0.343758 0.371295 4 -0.500003 0.0937514 4 0.500005
0.0937514 4 0.375005 0.343758 4 0.343755 0.375009 4 -0.375007 0.343759
4 -0.343758 0.37501 4 0.0937516 0.500018 4 -0.0937542 0.500019 4
0.468755 0.205624 4 0.406255 0.312506 4 -0.406257 0.312507 4 0.312505
0.40626 4 -0.312508 0.406262 4 -0.500003 0.125002 4 0.500005 0.125002
4 0.125002 0.500017 4 -0.125005 0.500019 4 -0.468754 0.218754 4
0.468755 0.218754 4 0.218754 0.468764 4 -0.218758 0.468766 4 0.437505
[...]
POINT_DATA 4972
FIELD attributes 1
p 1 4972 float
-11.1738 -11.0946 -10.9812 -11.9895 -10.8819 -11.9579 -11.5219 -10.9766 -12.9878 -11.4496 -10.9577
-12.1203 -13.0369 -11.8024 -13.3303 -12.1705 -11.5476 -13.6592 -12.2973 -11.7263 -13.6972
-12.5486 -12.9476 -12.7315 -13.9815 -13.7578 -13.1266 -13.967 -12.3908 -13.4534 -13.9886
-12.7075 -13.047 -13.9441 -14.4151 -14.2762 -13.67 -14.2289 -14.0284 -14.1648 -15.1157
-14.7417 -14.08 -14.61 -14.6356 -13.2642 -14.6247 -14.0663 -13.6201 -13.5851 -15.4097
-14.2402 -14.4182 -14.2205 -15.6305 -14.7973 -15.8959 -15.2513 -14.5532 -14.679 -14.8455
-14.2386 -14.0305 -15.3649 -14.1683 -14.3161 -14.172 -16.0258 -14.2557 -14.88 -14.5327
-16.0813 -15.8479 -14.7058 -14.8015 -16.179 -14.5158 -15.4392 -14.8024 -14.9752 -14.3947
-14.7036 -15.5089 -14.235 -16.0468 -14.7053 -14.819 -14.8262 -16.0976 -14.6641 -15.7878
-14.8354 -16.0927 -14.2881 -15.103 -15.0441 -16.0886 -14.6558 -15.3928 -15.1569 -15.9122
-15.8588 -14.6702 -14.6789 -14.4542 -13.9719 -15.3266 -15.0574 -15.8666 -13.8233 -14.8833
-15.579 -15.0622 -15.2633 -15.5065 -15.7559 -14.1258 -15.3131 -15.6883 -15.758 -14.5419
-15.8236 -14.8972 -15.4105 -15.7204 -15.6451 -14.8695 -15.6609 -14.7777 -15.6159 -15.2904
-15.521 -15.5238 -13.2201 -13.8211 -15.9091 -14.0261 -14.0233 -15.7443 -16.1444 -15.1084
-14.9338 -15.6266 -14.5738 -15.7028 -14.4493 -15.6756 -16.3469 -16.368 -16.446 -16.3145
-15.4409 -15.1754 -15.6531 -15.1172 -15.4863 -15.965 -15.6763 -16.3815 -16.3985 -15.9437
-16.3149 -15.3696 -15.4621 -16.1097 -16.1691 -15.736 -15.7219 -14.2278 -11.2088 -15.4856
-15.5342 -14.6643 -15.785 -14.6184 -16.4492 -16.2885 -12.3578 -16.4466 -16.6961 -16.2631
-16.2844 -14.7231 -14.066 -18.1583 -16.9245 -16.1578 -15.3654 -15.4936 -15.7287 -15.8485
-14.9508 -18.7743 -17.0164 -16.1058 -14.2515 -16.3223 -14.1947 -15.6917 -14.0947 -15.8474
-14.1937 -15.264 -17.7511 -16.886 -16.0885 -15.4723 -14.6279 -15.183 -15.9451 -8.50653
-17.8623 -16.91 -10.038 -19.6521 -17.1215 -16.7396 -16.3614 -13.9745 -12.4398 -15.2805
-21.9852 -15.9821 -16.5518 -16.0923 -17.3478 -16.6136 -13.9403 -15.8035 -13.912 -21.7954
-15.6011 -13.9433 -14.7426 -15.944 -17.5139 -16.4971 -16.3393 -15.3419 -14.5817 -16.1489
-16.0588 -14.6735 -19.4597 -17.541 -16.3615 -13.8974 -16.3079 -5.58816 -18.0911 -17.2429
-7.33501 -20.493 -13.8662 -15.6756 -14.5746 -15.8437 -17.4007 -17.0957 -14.8894 -16.6304
-17.4455 -16.2088 -10.173 -23.2956 -17.5931 -16.9444 -15.3972 -13.8812 -15.9009 -15.9422
-16.215 -12.1151 -22.7665 -17.813 -16.7515 -13.9197 -14.945 -14.8369 -17.3404 -16.0329
-13.3442 -20.1271 -18.0179 -16.5043 -14.6675 -15.6812 -13.9738 -15.4294 -15.9297 -15.7723
-16.0321 -3.21716 -13.8613 -15.3401 -17.196 -18.2149 -16.2429 -17.4425 -4.8531 -18.1259
-14.9416 -14.1239 -17.3796 -15.8322 -17.5412 -17.3298 -7.58571 -21.552 -17.6768 -17.1807
-14.1434 -9.63219 -21.5898 -17.9151 -16.9684 -14.0153 -15.3637 -18.4478 -16.031 -14.8457
-15.4102 -16.0807 -15.567 -15.8782 -11.1351 -19.6915 -14.2049 -14.9255 -17.5368 -15.6337
-18.263 -16.713 -14.0097 -14.5257 -18.7485 -15.9081 -14.5165 -11.9407 -17.382 -18.7164
-16.5022 -1.93162 -11.1431 -17.5245 -3.18698 -14.0406 -17.5588 -17.4545 -5.32887 -18.0555
-16.0754 -15.2569 -17.6286 -17.3421 -14.8826 -14.8782 -17.5261 -15.4245 -15.7999 -14.6361
-7.05098 -12.2817 -19.1844 -15.7236 -19.2487 -16.4483 -17.8615 -17.1899 -14.3911 -13.9586
-18.8831 -15.8548 -8.48252 -18.4691 -18.295 -17.0434 -14.8751 -12.3907 -14.7807 -19.7171
-16.564 -9.4265 -16.9758 -15.7525 -17.1569 -14.7093 -15.1067 -18.9172 -16.9952 -15.7278
-1.6752 -7.00087 -14.7134 -13.8967 -18.5724 -15.7816 -17.5918 -2.51232 -9.83346 -17.5751
-17.5357 -3.97221 -14.2064 -17.5904 -17.4218 -9.96812 -15.6343 -19.6475 -17.1194 -14.4328
-12.4141 -19.6312 -16.7153 -5.20684 -16.3467 -17.8211 -17.2961 -6.33401 -16.7369 -18.3047
-17.2303 -14.9955 -15.5159 -16.4958 -14.5656 -15.1747 -13.7529 -17.8608 -15.564 -10.2841
-14.7663 -20.0952 -17.3365 -7.22568 -16.0634 -14.385 -12.3963 -18.9981 -16.7418 -19.0207
-17.2539 -1.98442 -4.60138 -17.7634 -2.52717 -7.21271 -17.708 -17.6841 -3.52609 -11.4774
-10.4853 -14.2933 -19.7487 -17.4485 -17.6952 -17.4926 -7.87134 -15.215 -19.8637 -17.3492
-15.0289 -4.42555 -14.022 -15.6279 -16.9413 -13.6649 -15.0914 -17.9605 -17.2825 -14.8434
-14.4873 -12.3086 -18.1227 -16.5952 -5.26459 -15.0719 -18.491 -17.1557 -8.34584 -14.5741
-20.3273 -17.404 -14.0202 -10.6022 -19.2284 -17.3546 -5.98048 -15.1078 -19.2277 -17.0803
-14.1244 -15.8965 -14.2414 -2.38272 -4.86345 -8.70079 -14.1309 -20.1376 -17.2872 -17.6954
-2.75736 -7.13427 -14.7114 -17.1359 -12.3284 -16.2053 -17.5881 -17.6844 -6.55353 -14.8072
-20.0762 -16.9832 -3.49459 -10.8684 -17.6417 -17.474 -13.967 -10.6571 -18.6621 -17.1481
-14.6507 -4.21681 -13.2271 -18.0604 -17.1794 -12.6423 -4.88423 -7.01664 -14.4473 -14.4523
-20.6294 -18.7232 -16.7756 -16.9361 -13.8705 -8.96217 -20.1172 -17.0037 -14.8778 -16.0653
-12.8304 -15.4591 -5.43729 -14.8355 -19.5107 -16.6971 -14.0488 -10.7955 -17.6558 -16.8138
-7.39962 -14.1412 -20.7115 -16.4101 -2.68351 -7.08917 -17.4603 -10.9133 -2.98914 -5.86993
-8.96603 -14.8109 -13.7762 -9.1638 -19.9318 -20.3133 -16.7079 -17.4987 -16.3809 -17.4789
-3.57513 -11.9775 -17.7718 -17.3132 -14.7335 -4.14733 -13.8898 -18.3115 -16.9727 -7.70709
-13.9112 -20.8881 -15.9601 -6.21843 -14.5788 -14.9824 -13.8879 -20.847 -15.8968 -9.66547
-4.68468 -14.9802 -14.1021 -16.3962 -11.1435 -16.2837 -18.9881 -16.5943 -9.35035 -13.71
-9.36928 -18.6294 -16.4051 -5.12766 -15.3396 -19.7257 -16.1546 -6.52322 -14.2851 -20.9325
-15.2506 -13.7233 -7.94821 -20.7974 -15.6012 -5.47004 -15.2602 -20.4558 -15.601 -2.98642
-9.92487 -17.2519 -3.28254 -11.3907 -17.5836 -17.0289 -8.01725 -15.1688 -3.79203 -13.64
-14.1292 -15.1384 -11.7997 -14.8954 -18.0214 -16.8378 -13.6113 -9.64415 -16.8388 -16.0638
-7.54951 -4.22566 -15.0246 -6.78892 -13.9812 -20.9735 -18.5165 -14.6376 -16.5394 -5.73536
-14.9338 -20.9172 -14.8771 -4.62954 -15.8437 -13.5252 -8.16088 -19.3307 -15.3395 -19.0112
-16.1038 -6.90219 -4.96866 -16.0302 -19.5916 -15.5417 -6.47456 -5.95574 -14.5203 -20.935
-14.0582 -7.01281 -13.6822 -20.7788 -14.2832 -14.1716 -12.5959 -6.02512 -13.5121 -15.331
-10.04 -15.0842 -5.24095 -15.7943 -20.3156 -14.8372 -5.86204 -3.38765 -12.2724 -13.3057
-8.39061 -17.177 -15.0983 -16.8878 -15.6473 -3.68694 -13.4233 -17.3008 -16.3876 -4.14921
-15.0654 -17.6701 -16.0152 -5.48961 -6.14665 -14.093 -20.8231 -13.432 -5.38293 -4.46579
-15.9943 -18.0342 -15.7094 -5.21544 -5.44756 -15.323 -13.3813 -7.20836 -19.3381 -20.7706
-14.1036 -14.0517 -4.9703 -4.64264 -4.73328 -4.5165 -4.27785 -3.86674 -3.58476 -4.74072
-16.5492 -18.3436 -15.2844 -13.42 -14.1981 -10.4775 -13.0017 -6.32072 -13.6768 -20.279
-13.2027 -4.97108 -5.60177 -16.5558 -14.7784 -13.0812 -8.65473 -15.4472 -20.7375 -14.4033
-18.7953 -13.3241 -14.7561 -13.0661 -7.39752 -17.172 -13.9052 -5.1617 -16.1709 -19.5824
-14.1144 -3.88984 -13.9648 -16.3382 -15.896 -4.18748 -5.72394 -14.8317 -14.2313 -20.4918
-16.7283 -12.8373 -15.7286 -4.61506 -15.9694 -6.48298 -13.2774 -18.7332 -16.9914 -13.1233
-15.1757 -5.30137 -15.5899 -20.2021 -13.4608 -4.84393 -16.5552 -13.3077 -10.767 -17.2681
-14.7619 -12.8626 -14.1527 -8.9264 -12.7694 -5.00743 -16.926 -17.4813 -14.3312 -12.7496
-7.59578 -15.3599 -13.3083 -5.83672 -13.7126 -19.5525 -12.6385 -5.39224 -14.9694 -20.176
-12.9159 -5.12752 -16.841 -17.7117 -13.8655 -12.8838 -6.64542 -16.7595 -12.9296 -5.21704
-16.3743 -18.1774 -13.3466 -5.45103 -14.352 -12.641 -13.1662 -9.14135 -10.7992 -19.5491
-12.5162 -5.95082 -13.2271 -17.8225 -12.5045 -4.48278 -15.055 -15.4682 -4.76695 -15.6263
-12.4429 -7.80705 -14.003 -12.0568 -15.8937 -14.892 -15.836 -5.15319 -16.3199 -16.1555
-14.3493 -5.2699 -15.7184 -18.6098 -12.8389 -5.31437 -16.6463 -12.4944 -6.81481 -15.0476
-12.3444 -16.3692 -13.9097 -5.38578 -5.50341 -16.8632 -13.7648 -18.2843 -16.5073 -12.2259
-13.5079 -15.7209 -5.28284 -15.0722 -6.08042 -12.7593 -16.0342 -18.5207 -12.2224 -12.3971
-5.40018 -16.7817 -16.5687 -13.0952 -12.4203 -9.24097 -12.1477 -12.9875 -8.00573 -10.5225
-5.38863 -16.3733 -12.1175 -6.99497 -13.7378 -16.6611 -11.2885 -12.6499 -5.5671 -13.2109
-16.6504 -11.9441 -5.26893 -14.4363 -17.7445 -12.0028 -5.13178 -15.4018 -14.4125 -5.39342
-15.7445 -6.22951 -12.3069 -14.5218 -11.5874 -14.8081 -13.9508 -5.72289 -5.34271 -16.1545
-15.7256 -16.6952 -15.0693 -13.5064 -12.221 -5.8188 -16.3294 -15.2033 -13.0987 -15.4756
-5.26082 -13.8095 -16.5663 -11.6396 -5.65994 -12.6786 -15.114 -11.5244 -5.81654 -16.409
-11.8708 -12.2083 -8.14158 -9.18269 -15.2473 -12.7256 -5.2571 -15.0941 -16.4753 -11.8218
-11.7676 -7.18113 -12.7449 -10.09 -5.74782 -16.3597 -15.2658 -12.3543 -11.8751 -6.3948
-13.3394 -10.6437 -5.27721 -13.2058 -15.3217 -11.2746 -5.64815 -5.158 -16.121 -14.4757
-15.8952 -15.2684 -11.963 -11.4286 -5.7877 -12.1716 -13.852 -10.8656 -5.69921 -15.1301
-13.4006 -5.94194 -15.3093 -13.7073 -13.0493 -5.49306 -15.6142 -11.6203 -8.18591 -15.1736
-11.5808 -6.2208 -15.5737 -11.4538 -11.9766 -7.33938 -9.01239 -13.931 -12.6923 -15.0639
-5.0857 -13.8313 -15.0643 -11.0292 -6.2675 -5.33842 -15.7181 -12.6226 -14.1451 -14.0354
-10.8168 -12.337 -11.4774 -6.57197 -12.4114 -9.67172 -6.22189 -15.7353 -14.0569 -12.0077
-5.29529 -15.0539 -14.9045 -11.2104 -5.94229 -11.6924 -12.8344 -10.0744 -14.9166 -6.10657
-15.7271 -14.0609 -11.6793 -5.0601 -13.1938 -14.1502 -10.6319 -5.10853 -5.45017 -14.4731
-12.0689 -13.1365 -14.4384 -10.2357 -10.8439 -5.94305 -15.6841 -14.0159 -11.3322 -11.1696
-11.3745 -7.44005 -8.1586 -11.1279 -6.73795 -11.6843 -8.80608 -5.99525 -5.67948 -14.58
-15.4134 -11.2539 -6.11137 -12.0023 -13.8772 -9.29899 -12.4886 -10.9926 -6.23283 -14.6151
-12.7253 -12.2214 -5.09657 -12.5757 -13.2453 -10.2014 -6.49137 -4.97479 -14.7583 -13.8315
-13.8235 -12.899 -11.9281 -10.4738 -6.52969 -14.9381 -12.9791 -11.6252 -5.59706 -11.5503
-12.2816 -9.6024 -5.36202 -14.9804 -13.6209 -10.6575 -6.48887 -15.0145 -13.0009 -11.3447
-14.4493 -10.9046 -7.4893 -6.38392 -4.91217 -15.1018 -13.1705 -10.8191 -11.1012 -6.8668
-13.1261 -8.08839 -12.9909 -11.0545 -10.1018 -5.19623 -11.9833 -12.4277 -9.71127 -10.8715
-6.27653 -11.336 -8.5978 -5.09063 -14.4407 -13.2456 -10.3224 -6.22184 -15.2347 -12.9235
-10.7473 -14.2347 -5.76004 -11.0794 -11.5584 -8.97632 -4.92794 -12.5226 -12.4129 -9.70826
-5.88718 -15.2015 -12.7774 -10.4452 -5.88636 -4.90978 -14.1133 -13.8058 -12.7647 -11.672
-9.98302 -6.10454 -14.0396 -11.8512 -11.4616 -6.36096 -5.33837 -14.0567 -11.433 -11.7182
-11.9868 -11.2216 -9.19223 -6.45268 -14.2388 -10.5428 -10.6377 -6.95787 -7.49771 -12.0558
-10.9716 -5.44265 -14.9082 -10.5393 -6.41887 -10.7915 -12.5436 -7.99115 -10.1425 -6.47262
-14.4115 -12.069 -10.7259 -4.82119 -13.1283 -5.9221 -10.6687 -10.9619 -12.2135 -8.39363
-9.63804 -5.01605 -11.902 -11.7531 -9.27854 -6.42282 -14.6433 -12.0419 -10.4667 -13.7743
-5.07293 -14.3963 -12.2287 -9.8374 -5.49621 -10.9397 -11.1023 -8.67345 -6.32834 -14.937
-11.9645 -10.1983 -4.82125 -12.4527 -11.6488 -9.27747 -10.273 -7.01159 -10.249 -6.53224
-10.3453 -7.47018 -6.01867 -4.85423 -5.1492 -15.0749 -13.7495 -11.3312 -11.1662 -11.8395
-11.8287 -8.8345 -9.9267 -9.52489 -5.35106 -13.9288 -10.9391 -5.50056 -13.8251 -10.3154
-6.0714 -10.4601 -7.87241 -11.0816 -10.7634 -5.74501 -13.7866 -11.1963 -10.5635 -13.3143
-5.94716 -13.9439 -11.2622 -10.3582 -5.51323 -14.864 -5.65176 -10.5082 -10.5746 -11.6289
-8.1819 -9.65324 -6.07512 -4.89902 -14.1688 -11.8151 -11.1185 -11.2602 -10.1496 -8.89773
-4.75858 -13.0519 -11.4061 -9.20778 -6.10971 -5.29549 -14.4944 -10.8237 -10.6384 -11.2177
-8.3937 -9.92501 -5.05312 -14.3357 -11.3666 -9.37951 -13.0196 -9.97082 -9.98278 -6.61333
-7.02822 -6.08812 -14.8635 -10.0111 -6.1961 -10.0384 -7.41417 -11.1399 -9.68976 -4.75697
-12.3586 -10.9638 -8.88159 -5.0218 -11.2382 -10.6293 -8.51586 -5.79989 -10.139 -10.1189
-7.73455 -4.78793 -13.6551 -11.0493 -9.09775 -5.86729 -15.0476 -11.014 -9.44823 -4.66261
-13.9515 -10.2766 -4.72995 -5.44242 -13.8847 -10.3784 -10.1724 -10.3907 -10.1325 -7.97263
-4.94197 -13.8903 -10.4776 -9.96788 -5.20913 -5.42532 -14.0641 -14.8305 -10.8441 -10.5321
-9.798 -9.20331 -4.83303 -11.7134 -10.5301 -8.54872 -4.69787 -12.9407 -10.7017 -8.81251
-5.39547 -14.3096 -9.67965 -6.65994 -10.5306 -9.61965 -5.15316 -10.722 -10.1754 -8.13628
-9.72257 -6.28912 -9.68719 -7.01531 -5.92824 -9.81732 -9.72749 -7.33321 -5.50369 -14.6213
-10.4859 -9.42271 -4.97153 -14.2462 -10.6237 -8.95697 -12.2403 -5.58482 -9.99397 -9.76357
-7.58424 -5.53417 -4.7054 -14.9188 -12.2348 -10.3433 -10.4153 -9.21569 -8.52145 -4.95019
-11.1359 -10.1176 -8.21823 -12.1851 -4.68758 -13.5191 -10.3636 -8.70444 -5.28668 -10.2633
-9.76835 -7.76951 -5.39294 -15.0073 -10.3028 -9.00374 -4.10209 -13.9994 -9.425 -9.39051
-6.35161 -6.6751 -9.67917 -4.14846 -13.9983 -9.77082 -9.56175 -4.31755 -4.77595 -14.0936
-11.5835 -6.025 -9.50993 -9.39434 -6.97419 -9.98204 -9.83619 -9.42629 -8.22758 -5.07648
-14.7289 -10.1549 -8.78501 -4.5116 -4.60524 -5.06799 -14.2986 -12.7909 -10.6146 -9.73016
-9.87238 -10.0806 -9.28246 -7.88816 -8.44983 -5.70917 -9.64915 -9.40521 -7.23033 -4.62479
-14.5306 -9.87063 -9.12714 -4.74255 -5.41763 -14.1031 -9.86095 -9.40638 -9.97085 -7.4278
-8.5639 -4.70713 -14.7727 -9.83547 -8.95722 -4.8848 -11.0088 -9.63312 -7.93679 -4.62859
-12.0765 -9.78004 -8.19071 -4.75051 -14.9309 -9.77382 -8.77819 -11.4788 -5.1786 -10.1413
-9.37652 -7.56796 -9.13762 -6.38539 -4.52294 -13.3356 -9.20395 -6.09435 -9.10914 -6.66079
-9.75576 -8.33791 -4.68987 -14.8673 -5.80666 -9.31912 -9.09584 -9.67587 -6.90849 -8.59194
-4.69576 -11.4178 -9.47782 -7.9298 -3.6592 -5.5331 -14.0145 -9.49346 -9.08172 -9.13736
-7.11246 -3.68959 -4.99308 -14.0521 -10.4838 -9.30223 -9.21277 -9.04052 -7.64726 -3.78446
-14.2114 -9.26762 -8.92598 -4.52989 -4.47253 -14.5248 -12.5918 -9.54679 -9.52001 -8.39904
-8.11043 -3.86308 -14.439 -9.29443 -8.80409 -5.28824 -9.71626 -9.05645 -7.26608 -11.0483
-3.85202 -14.6377 -9.28878 -8.67236 -4.38132 -13.8785 -9.39175 -8.20311 -3.8198 -4.79953
-14.7861 -10.8361 -8.91889 -8.8641 -6.13897 -6.39073 -9.25875 -9.18209 -8.5277 -7.67199
-4.52729 -11.868 -9.26905 -7.88029 -5.88041 -9.00615 -8.82623 -6.6221 -5.0876 -9.99539
-8.99443 -7.36557 -3.83365 -14.7923 -9.20219 -8.37132 -5.62848 -9.14629 -8.797 -6.82462
-10.7803 -4.3008 -13.0809 -9.2119 -8.0008 -3.87386 -5.39593 -14.6151 -9.33411 -8.76251
-9.11503 -6.98462 -8.2062 -4.61315 -11.2039 -9.01525 -7.6492 -4.90889 -10.3082 -8.89783
-7.41627 -3.25174 -13.9831 -8.64646 -3.24268 -4.32645 -14.0243 -12.3257 -8.70709 -9.01319
-8.56412 -7.79737 -3.90623 -14.2162 -9.00496 -8.03629 -3.25132 -5.18462 -14.1824 -9.55137
-8.71082 -8.74988 -8.46623 -7.09791 -8.64789 -6.15681 -3.23374 -14.3904 -5.92962 -8.72194
-8.58892 -6.37148 -8.77156 -8.36546 -5.70287 -8.82712 -8.54481 -6.56408 -3.11564 -14.5303
-8.76574 -8.25366 -4.72509 -10.6205 -8.76438 -7.42023 -3.96061 -13.5273 -8.87193 -7.86317
-4.42414 -5.0042 -11.5977 -9.8226 -8.63103 -8.80259 -7.1671 -7.59223 -2.99238 -5.48817
-14.5693 -8.98678 -8.50126 -8.73603 -6.72596 -8.12724 -2.99905 -14.4692 -8.6843 -7.99028
-4.03876 -5.28685 -12.7163 -9.16845 -8.44879 -8.72227 -6.84759 -7.68362 -10.1286 -4.83812
-10.1012 -8.51992 -7.19426 -3.14485 -4.53523 -14.2241 -10.9475 -8.61099 -8.58824 -7.84538
-7.38652 -5.95394 -8.45307 -8.37695 -6.15128 -9.98259 -5.75338 -8.53951 -8.31937 -6.33231
-5.09757 -9.38427 -8.38059 -6.9296 -4.16524 -11.9706 -8.55566 -7.50203 -2.90174 -13.9061
-8.1993 -2.86406 -3.3561 -5.55707 -13.9721 -13.7451 -8.66726 -8.26848 -8.25138 -8.51842
-6.48892 -8.12923 -7.69611 -2.78685 -14.0978 -8.28508 -8.04832 -2.66558 -14.1944 -8.29986
-7.96459 -4.66492 -5.37212 -10.3933 -8.83278 -8.21373 -8.37511 -6.61515 -7.18327 -2.48243
-4.93465 -14.2333 -9.63571 -8.29398 -8.28707 -7.86754 -6.97442 -3.5766 -13.0253 -8.40452
-7.54247 -4.31229 -11.2817 -8.37616 -7.32005 -2.33794 -14.1975 -8.26481 -7.75731 -5.19312
-9.00747 -8.14932 -6.70593 -8.18882 -5.9577 -2.37753 -14.0249 -5.7819 -8.27186 -8.11773
-6.12663 -8.2201 -7.63914 -3.78011 -12.2625 -8.27659 -7.38383 -4.78481 -5.60571 -9.88933
-8.37448 -8.05832 -6.27583 -8.16278 -6.98272 -9.53932 -4.44958 -10.679 -8.19463 -7.13831
-2.62428 -5.02325 -13.656 -9.21513 -8.06618 -8.15956 -7.51226 -6.76326 -5.43489 -8.51563
-7.99993 -6.39989 -3.99546 -11.5696 -8.13539 -7.22303 -2.97084 -13.0932 -8.07937 -7.38066
-2.58824 -13.6133 -7.79515 -2.50013 -5.27212 -13.7352 -8.67357 -7.93722 -7.83901 -7.73958
-6.49644 -2.32286 -13.8864 -7.86816 -7.6739 -4.59981 -10.1523 -8.01033 -6.95707 -4.87664
-9.44041 -7.95801 -6.78718 -2.15173 -13.9014 -7.879 -7.60097 -1.98067 -3.29878 -4.19382
-13.8424 -12.4332 -10.9423 -5.79146 -8.01571 -7.93681 -5.94354 -7.87281 -7.98267 -7.98312
-7.51598 -7.24456 -7.06188 -5.11211 -8.84299 -7.8588 -6.56224 -5.63692 -8.10685 -7.86892
-6.08457 -1.84117 -13.7333 -7.8465 -7.41984 -5.48021 -8.22161 -7.80468 -6.20449 -3.58257
-11.7719 -7.87197 -7.10433 -1.90358 -4.72929 -13.4605 -9.66616 -7.80755 -7.8243 -7.31458
-6.77792 -9.07229 -5.33177 -8.35954 -7.73999 -6.30103 -4.36441 -4.95858 -10.39 -9.03732
-7.76325 -7.8263 -6.59802 -6.9007 -9.02568 -2.25159 -12.9772 -7.75452 -7.20185 -3.85869
-5.18595 -11.1536 -8.5091 -7.66584 -7.75082 -6.37264 -6.96217 -5.7839 -7.77096 -2.71783
-12.4116 -7.68448 -7.08525 -5.64894 -7.85776 -7.69625 -5.91291 -2.32273 -4.81953 -13.0965
-9.23753 -7.43106 -7.64517 -6.60308 -2.20429 -4.53242 -13.1937 -9.89038 -7.46516 -7.38615
-7.66653 -6.73879 -1.96329 -5.51067 -13.3087 -7.95718 -7.62703 -6.02768 -7.48813 -7.33157
-1.7734 -5.04394 -13.3019 -8.6731 -7.4966 -7.57789 -7.26645 -6.41669 -4.09462 -10.5882
-7.62122 -6.81857 -3.12952 -5.37433 -11.8456 -8.0727 -7.55996 -6.12179 -7.60201 -6.96534
-1.64011 -13.1917 -7.49139 -7.19045 -1.52363 -13.0233 -7.47232 -7.10498 -5.24211 -8.20302
-7.48625 -6.19533 -4.67074 -9.43447 -7.50589 -6.5785 -3.47809 -4.89793 -11.2692 -8.85285
-7.47381 -7.50653 -6.43326 -6.84143 -1.60642 -12.7127 -7.43749 -7.01056 -4.29402 -10.0826
-7.48536 -6.67432 -6.80524 -6.84785 -6.77078 -5.64355 -7.61878 -5.76092 -7.53688 -5.11167
-8.34661 -7.40399 -6.24531 -6.8769 -6.73787 -8.55767 -2.03033 -5.52391 -12.2614 -7.71089
-7.46362 -5.86697 -7.38765 -6.91128 -6.89324 -6.89331 -3.7871 -10.7215 -7.40177 -6.7149
-5.40125 -7.81273 -7.39374 -5.95822 -6.64513 -4.76491 -9.03188 -7.34963 -6.42166 -2.57716
-4.47423 -11.7773 -9.62077 -7.32694 -7.34753 -6.80851 -6.52983 -6.88388 -4.98234 -8.50208
-7.31066 -6.27013 -2.11998 -5.28225 -12.5883 -7.92482 -7.32074 -7.09739 -6.03106 -2.00615
-12.6186 -7.1254 -7.05987 -1.76157 -12.6393 -7.14465 -7.01275 -4.0332 -10.2278 -7.29071
-6.58713 -1.56119 -12.5976 -7.15135 -6.95457 -6.53346 -6.87262 -3.04099 -11.2799 -7.255
-6.70278 -1.4566 -5.16292 -12.4585 -8.04922 -7.24095 -7.14568 -6.88731 -6.08412 -6.8622
-8.30102 -4.61908 -9.19811 -7.20873 -6.38643 -1.41028 -4.84307 -12.2711 -8.66467 -5.62487
-7.38969 -7.13057 -7.19829 -6.81237 -6.26945 -6.84905 -5.51957 -7.47354 -5.72222 -7.31253
-3.43257 -10.7729 -7.17265 -6.59368 -4.24454 -5.41325 -9.77472 -7.56719 -7.23923 -5.80818
-7.17341 -6.45865 -1.56329 -5.04792 -11.9761 -8.18706 -7.15436 -7.0999 -6.72992 -6.11515
-6.4022 -5.30638 -7.66977 -7.1668 -5.87915 -6.8078 -2.02541 -11.5959 -7.05563 -6.64328
-8.14774 -3.75413 -10.3012 -7.08265 -6.48159 -4.71627 -8.82069 -7.07141 -6.24574 -5.19968
-7.77893 -7.08932 -5.93332 -4.42966 -4.92352 -8.32971 -9.34904 -7.05272 -7.05369 -6.12298
-6.32961 -6.76865 -2.56199 -11.1957 -7.00321 -6.55287 -6.25402 -1.99305 -12.0425 -6.79215
-1.90214 -12.054 -6.81565 -6.75903 -6.74404 -1.70682 -3.9956 -5.09366 -12.0341 -7.89941
-9.87194 -6.83108 -7.00536 -6.71639 -6.98639 -5.96839 -6.36756 -5.50276 -5.5924 -7.2485
-7.17171 -1.53876 -5.40997 -11.978 -7.33399 -7.0964 -5.67102 -6.83602 -6.66652 -3.00961
-10.7643 -6.94004 -6.45932 -6.72259 -1.4658 -11.8283 -6.83004 -6.60892 -4.79355 -5.31592
-8.4728 -7.42964 -7.02262 -5.73908 -6.93766 -6.10909 -4.57221 -8.95796 -6.93259 -6.20144
-1.49279 -11.6263 -6.81423 -6.54383 -4.98629 -8.0287 -6.91227 -5.98286 -3.40101 -4.20807
-5.22051 -7.53094 -9.46475 -10.3337 -6.94739 -5.7926 -6.8697 -6.88444 -6.36336 -6.25333
-6.66543 -1.74136 -11.3479 -6.78759 -6.47315 -6.09401 -5.12569 -7.63689 -6.86715 -5.83008