# vtk DataFile Version 2.0
sampleSurface
ASCII
DATASET POLYDATA
POINTS 4972 float
4 2.90752e-06 0 4 -0.0312483 0 4 2.85017e-06 0.0312519 4 0.031254
0 4 -0.0312483 0.0312519 4 0.031254 0.0312519 4 -0.0624994 0
4 2.75539e-06 0.0625039 4 0.062505 0 4 -0.0624995 0.0312519 4
-0.0312484 0.0625039 4 0.0312539 0.0625038 4 0.062505 0.0312519 4 -0.0624996
0.0625038 4 0.0625049 0.0625038 4 -0.0937506 0 4 2.62364e-06 0.0937558
4 0.093756 0 4 -0.0937506 0.0312519 4 -0.0312486 0.0937557 4
0.0937559 0.0312518 4 0.0312537 0.0937557 4 -0.0937507 0.0625037 4 -0.0624998
0.0937557 4 0.0937558 0.0625036 4 0.0625048 0.0937556 4 -0.125002 0
4 0.125007 0 4 2.45461e-06 0.125008 4 -0.125002 0.0312518 4
0.125007 0.0312518 4 -0.0312487 0.125008 4 0.0312536 0.125008 4 -0.0937509
0.0937555 4 0.0937557 0.0937554 4 -0.125002 0.0625035 4 -0.0624999 0.125007
4 0.125007 0.0625035 4 0.0625046 0.125007 4 -0.156253 0 4
-0.125002 0.0937553 4 -0.0937511 0.125007 4 0.156257 0 4 0.125006
0.0937552 4 0.0937555 0.125007 4 2.2494e-06 0.156259 4 -0.156253 0.0312517
4 0.156257 0.0312517 4 -0.031249 0.156259 4 0.0312534 0.156259 4
-0.156253 0.0625034 4 0.156257 0.0625033 4 -0.0625002 0.156259 4 0.0625044
0.156259 4 -0.125002 0.125007 4 0.125006 0.125007 4 -0.156253 0.093755
4 -0.0937514 0.156259 4 0.156257 0.0937549 4 0.0937553 0.156259 4
-0.187503 0 4 0.187508 0 4 2.0071e-06 0.187511 4 -0.187503
0.0312516 4 0.187508 0.0312516 4 -0.0312492 0.187511 4 0.0312532 0.187511
4 -0.187504 0.0625032 4 0.187508 0.0625031 4 -0.0625005 0.187511 4
0.0625042 0.187511 4 -0.156253 0.125007 4 -0.125002 0.156259 4 0.156257
0.125007 4 0.125006 0.156259 4 -0.187504 0.0937547 4 0.187507 0.0937546
4 -0.0937517 0.187511 4 0.0937551 0.187511 4 -0.218754 0 4
0.218758 0 4 1.73283e-06 0.218763 4 -0.218754 0.0312515 4 0.218758
0.0312515 4 -0.156253 0.156258 4 0.156257 0.156258 4 -0.0312495 0.218763
4 0.0312529 0.218763 4 -0.187504 0.125006 4 0.187507 0.125006 4
-0.125003 0.18751 4 0.125006 0.18751 4 -0.218754 0.0625029 4 0.218758
0.0625029 4 -0.0625008 0.218763 4 0.0625039 0.218763 4 -0.218754 0.0937544
4 0.218758 0.0937543 4 -0.093752 0.218762 4 0.0937549 0.218762 4
-0.187504 0.156258 4 -0.156254 0.18751 4 0.187507 0.156258 4 0.156257
0.18751 4 -0.250004 0 4 0.250008 0 4 1.43381e-06 0.250015
4 -0.250005 0.0312514 4 -0.218755 0.125006 4 0.250008 0.0312513 4
0.218758 0.125006 4 -0.125003 0.218762 4 0.125006 0.218762 4 -0.0312498
0.250015 4 0.0312526 0.250014 4 -0.250005 0.0625027 4 0.250008 0.0625027
4 -0.0625011 0.250014 4 0.0625037 0.250014 4 -0.187505 0.187509 4
0.187507 0.187509 4 -0.250005 0.093754 4 0.250008 0.093754 4 -0.0937523
0.250014 4 0.0937546 0.250014 4 -0.218755 0.156257 4 0.218757 0.156257
4 -0.156254 0.218761 4 0.156256 0.218761 4 -0.250005 0.125005 4
0.250008 0.125005 4 -0.125003 0.250014 4 0.125005 0.250013 4 -0.281255
0 4 0.281258 0 4 1.11352e-06 0.281266 4 -0.281255 0.0312512
4 0.281258 0.0312512 4 -0.0312501 0.281266 4 0.0312523 0.281266 4
-0.281255 0.0625025 4 0.281258 0.0625024 4 -0.218755 0.187509 4 0.218757
0.187508 4 -0.187505 0.218761 4 0.187507 0.21876 4 -0.0625014 0.281266
4 0.0625033 0.281266 4 0.0815282 0.281265 4 0.0625033 0.286625 4
0.0937543 0.278097 4 -0.250005 0.156257 4 0.250008 0.156256 4 -0.156254
0.250013 4 0.156256 0.250012 4 -0.281255 0.0937537 4 0.281258 0.0937536
4 -0.0937526 0.281266 4 0.0937542 0.281265 4 0.0312521 0.295659 4
0.125005 0.27035 4 8.6292e-07 0.304749 4 0.156256 0.262911 4 -0.281255
0.125005 4 0.281258 0.125005 4 0.125005 0.281264 4 -0.125004 0.281265
4 -0.218756 0.21876 4 0.218757 0.21876 4 -0.312505 0 4
0.312508 0 4 -0.250006 0.187508 4 0.250007 0.187508 4 -0.187505
0.250012 4 0.187506 0.250012 4 7.80021e-07 0.312517 4 -0.0269853 0.312517
4 -0.312505 0.0312511 4 0.312508 0.0312511 4 0.0312519 0.312517 4
-0.0312505 0.312517 4 -0.0312505 0.313916 4 0.187506 0.255809 4 -0.312505
0.0625022 4 0.312508 0.0625022 4 0.062503 0.312517 4 -0.0625017 0.312517
4 -0.281256 0.156256 4 0.281258 0.156256 4 0.156256 0.281264 4
-0.156255 0.281264 4 -0.312505 0.0937533 4 0.312508 0.0937532 4 0.0937539
0.312516 4 -0.093753 0.312517 4 0.214502 0.250011 4 -0.0625018 0.323793
4 0.218757 0.249112 4 -0.250006 0.218759 4 0.250007 0.218759 4
-0.218756 0.250011 4 0.218757 0.250011 4 -0.312505 0.125004 4 0.312508
0.125004 4 0.125005 0.312515 4 -0.125004 0.312516 4 -0.281256 0.187507
4 0.281257 0.187507 4 0.187506 0.281263 4 -0.187506 0.281263 4
-0.343755 0 4 0.343758 0 4 4.42059e-07 0.343769 4 -0.343755
0.031251 4 0.343758 0.031251 4 0.0312516 0.343768 4 -0.0312508 0.343769
4 -0.0937532 0.33293 4 0.250007 0.243101 4 -0.343755 0.062502 4
-0.312506 0.156255 4 0.343758 0.0625019 4 0.312507 0.156255 4 0.156255
0.312515 4 -0.156255 0.312515 4 0.0625026 0.343768 4 -0.062502 0.343768
4 0.250007 0.25001 4 -0.250007 0.25001 4 -0.343755 0.0937529 4
0.343758 0.0937529 4 -0.281256 0.218758 4 0.281257 0.218758 4 0.218756
0.281262 4 -0.218756 0.281262 4 0.0937535 0.343767 4 -0.0937533 0.343768
4 -0.125004 0.341229 4 -0.312506 0.187506 4 0.312507 0.187506 4
0.187506 0.312514 4 -0.187506 0.312515 4 -0.343755 0.125004 4 0.343757
0.125004 4 0.125004 0.343766 4 -0.125004 0.343767 4 0.281257 0.237336
4 -0.135979 0.343767 4 -0.375004 0 4 0.375008 0 4
1.09444e-07 0.375019 4 -0.375005 0.0312509 4 0.375007 0.0312509 4 0.281257
0.250009 4 -0.281257 0.250009 4 0.250006 0.281261 4 -0.250007 0.281261
4 0.0312512 0.375019 4 -0.0312511 0.375019 4 -0.343756 0.156255 4
0.343757 0.156255 4 0.156255 0.343765 4 -0.156256 0.343766 4 -0.375005
0.0625017 4 0.375007 0.0625017 4 0.0625022 0.375019 4 -0.0625023 0.375019
4 -0.312506 0.218758 4 0.312507 0.218757 4 0.218756 0.312513 4
-0.218757 0.312514 4 -0.156256 0.349389 4 -0.375005 0.0937526 4 0.375007
0.0937525 4 0.0937531 0.375018 4 -0.0937536 0.375019 4 0.312507 0.231749
4 -0.343756 0.187506 4 0.343757 0.187506 4 0.187505 0.343764 4
-0.187506 0.343765 4 -0.375005 0.125003 4 0.375007 0.125003 4 0.125004
0.375017 4 -0.125005 0.375018 4 0.281256 0.28126 4 -0.281257 0.28126
4 0.312507 0.250008 4 -0.312507 0.250008 4 0.250006 0.312512 4
-0.250007 0.312512 4 -0.187507 0.356711 4 -0.406254 0 4 -0.375005
0.156254 4 0.406257 0 4 0.375007 0.156254 4 0.156254 0.375016
4 -0.156256 0.375017 4 -2.07883e-07 0.40627 4 -0.406254 0.0312508 4
0.406257 0.0312507 4 -0.343756 0.218757 4 0.343757 0.218756 4 0.218756
0.343763 4 -0.218757 0.343764 4 0.0312509 0.40627 4 -0.0312514 0.40627
4 -0.406254 0.0625015 4 0.406257 0.0625015 4 0.0625019 0.406269 4
-0.0625026 0.40627 4 0.343757 0.226278 4 -0.406254 0.0937522 4 0.406257
0.0937522 4 0.0937527 0.406268 4 -0.0937538 0.406269 4 -0.375006 0.187505
4 0.375007 0.187505 4 0.187505 0.375015 4 -0.187507 0.375016 4
0.312506 0.281259 4 -0.312507 0.281259 4 0.281256 0.31251 4 -0.281258
0.312511 4 -0.218757 0.362686 4 -0.406255 0.125003 4 0.406257 0.125003
4 0.343757 0.250007 4 -0.343757 0.250008 4 0.250006 0.343762 4
-0.250008 0.343763 4 0.125003 0.406267 4 -0.125005 0.406269 4 -0.375006
0.218756 4 0.375006 0.218756 4 0.218755 0.375014 4 -0.218757 0.375015
4 0.375006 0.220884 4 -0.406255 0.156254 4 0.406257 0.156254 4
0.156254 0.406266 4 -0.156256 0.406268 4 -0.437504 0 4 0.437507
0 4 -4.97918e-07 0.43752 4 -0.437504 0.0312506 4 0.437507 0.0312506
4 0.0312506 0.43752 4 -0.0312516 0.43752 4 -0.437504 0.0625013 4
0.437506 0.0625013 4 0.312506 0.312509 4 -0.312508 0.31251 4 0.0625015
0.437519 4 -0.0625028 0.43752 4 0.343756 0.281258 4 -0.343757 0.281258
4 0.281256 0.343761 4 -0.281258 0.343762 4 -0.250008 0.367245 4
0.388542 0.218755 4 -0.437504 0.0937519 4 -0.406255 0.187504 4 0.437506
0.0937519 4 0.406256 0.187504 4 0.187504 0.406265 4 -0.187507 0.406267
4 0.0937523 0.437518 4 -0.093754 0.43752 4 0.375006 0.250006 4
-0.375006 0.250007 4 0.250005 0.375013 4 -0.250008 0.375014 4 -0.437504
0.125003 4 0.437506 0.125003 4 0.125003 0.437517 4 -0.125005 0.437519
4 0.406256 0.215628 4 -0.406256 0.218755 4 0.406256 0.218755 4
0.218755 0.406264 4 -0.218758 0.406266 4 -0.437504 0.156253 4 0.437506
0.156253 4 0.343756 0.312508 4 0.312506 0.34376 4 -0.343757 0.312509
4 -0.312508 0.343761 4 0.156253 0.437516 4 -0.156256 0.437518 4
-0.281258 0.370302 4 -0.468753 0 4 0.468756 0 4 0.375006
0.281257 4 -0.375007 0.281257 4 0.281255 0.375011 4 -0.281258 0.375013
4 -7.52289e-07 0.46877 4 -0.468753 0.0312506 4 0.468756 0.0312505 4
0.0312503 0.46877 4 -0.0312518 0.46877 4 -0.468753 0.0625011 4 0.468756
0.0625011 4 0.0625012 0.468769 4 -0.062503 0.46877 4 -0.437505 0.187504
4 0.437506 0.187504 4 0.187504 0.437515 4 -0.187507 0.437517 4
0.406256 0.250005 4 -0.406256 0.250006 4 0.250005 0.406263 4 -0.250008
0.406265 4 -0.468753 0.0937516 4 0.468756 0.0937516 4 0.0937519 0.468768
4 -0.0937541 0.468769 4 -0.468753 0.125002 4 0.468756 0.125002 4
0.125003 0.468767 4 -0.125005 0.468769 4 0.437506 0.210501 4 -0.312508
0.371724 4 0.343755 0.343759 4 -0.343758 0.34376 4 0.375006 0.312507
4 -0.375007 0.312508 4 0.312505 0.37501 4 -0.312508 0.375012 4
-0.437505 0.218754 4 0.437506 0.218754 4 0.218754 0.437514 4 -0.218758
0.437516 4 -0.468754 0.156253 4 0.468756 0.156253 4 0.406256 0.281256
4 -0.406256 0.281257 4 0.281255 0.406262 4 -0.281258 0.406263 4
0.156253 0.468766 4 -0.156256 0.468768 4 -0.500002 0 4 0.500006
0 4 -9.63934e-07 0.50002 4 -0.500002 0.0312505 4 0.500006 0.0312505
4 0.03125 0.500019 4 -0.031252 0.50002 4 -0.500003 0.0625009 4
0.500006 0.0625009 4 -0.437505 0.250005 4 0.437506 0.250005 4 0.250004
0.437513 4 -0.250008 0.437515 4 0.0625008 0.500019 4 -0.0625031 0.500019
4 -0.468754 0.187503 4 0.468756 0.187503 4 0.187503 0.468765 4
-0.187507 0.468767 4 -0.343758 0.371295 4 -0.500003 0.0937514 4 0.500005
0.0937514 4 0.375005 0.343758 4 0.343755 0.375009 4 -0.375007 0.343759
4 -0.343758 0.37501 4 0.0937516 0.500018 4 -0.0937542 0.500019 4
0.468755 0.205624 4 0.406255 0.312506 4 -0.406257 0.312507 4 0.312505
0.40626 4 -0.312508 0.406262 4 -0.500003 0.125002 4 0.500005 0.125002
4 0.125002 0.500017 4 -0.125005 0.500019 4 -0.468754 0.218754 4
0.468755 0.218754 4 0.218754 0.468764 4 -0.218758 0.468766 4 0.437505
[...]
POINT_DATA 4972
FIELD attributes 1
U 3 4972 float
20 0 0 20 0 0 9.87906 0.914915 0.458992 20 0
0 6.17891 1.48068 0.361457 11.1437 0.318097 0.48079 20 0 0
6.09412 1.07392 0.958565 20 0 0 3.57102 2.12068 0.42154 3.39102
1.54582 0.952317 6.97576 0.551186 0.923601 9.92324 -0.126066 0.38268 1.69818 2.19593
1.06234 5.88433 -0.000440783 0.731116 20 0 0 3.9288 1.26285 1.53315
20 0 0 3.06446 2.96993 0.605065 2.04457 1.49514 1.59749 8.80891
-0.405499 0.262369 4.82543 1.00916 1.35345 1.49435 2.8702 1.1135 0.96102 1.91496
1.57569 4.93423 -0.37938 0.481337 4.36626 0.541565 1.02724 20 0 0
20 0 0 2.44574 1.50059 1.92594 3.00187 3.75098 0.641735 9.01218
-0.529354 0.204685 1.30732 1.45021 1.91826 3.27641 1.57101 1.7309 0.863476 2.25922
1.34203 3.75787 0.0824932 0.653678 1.63356 3.25105 0.90703 0.705737 1.54989 1.70508
4.75945 -0.489428 0.292342 3.38207 1.403 1.37763 20 0 0 1.07525
2.35256 0.861839 0.695035 1.62598 1.26228 20 0 0 3.50249 -0.128649
0.355612 3.18212 1.03586 0.963292 1.59152 1.729 1.90751 3.03704 4.31191 0.459611
9.42573 -0.494572 0.187484 1.04388 1.45038 1.78574 2.12593 2.02826 1.83753 1.93691
3.41103 0.518712 4.81688 -0.352837 0.181097 0.804047 1.29429 1.48176 2.41744 2.15483
1.61685 1.00712 1.62976 0.657019 3.01771 0.703984 0.591754 1.46499 2.34269 0.320021
0.940928 1.2305 1.01073 3.44013 -0.0552379 0.179004 2.52613 2.02614 1.3153 20
0 0 20 0 0 1.20533 1.93918 1.57541 3.23864 4.69322
0.203243 9.07649 -0.35542 0.13784 1.06609 1.56761 1.39941 1.42266 2.31123 1.64452
2.3512 3.50295 0.141764 4.79064 -0.0855604 0.120456 1.12248 1.28974 1.13467 1.63391
2.56397 1.61362 1.56273 1.64408 0.0904327 1.42461 1.25528 0.463073 2.93072 0.588161
0.338837 2.56245 1.73658 0.995073 1.96613 2.32681 -0.106009 3.45249 0.20943 0.117828
1.44662 1.1502 0.797897 1.8257 2.60483 1.5079 20 0 0 20
0 0 0.928012 2.08689 1.22007 3.58908 4.95418 -0.0102677 7.83845 -0.280607
0.0766977 2.17898 1.33827 0.00702726 2.56836 1.47758 0.716083 1.04265 1.7398 1.06616
0.936885 2.41587 1.36278 2.23787 1.63246 -0.298999 2.91937 0.705874 0.217767 2.05229
1.15241 0.443466 1.99699 2.44322 1.34569 2.84414 3.59022 -0.128234 4.67875 0.114178
0.171769 1.32696 1.43864 0.919472 1.03455 2.65774 1.47591 2.51712 2.30421 -0.371784
3.55488 0.499157 0.216632 1.80352 1.23434 0.774819 1.20389 2.7448 1.54695 2.9552
1.34674 -0.272666 2.80189 1.20873 0.159304 2.59388 1.37649 0.512085 2.12878 2.18408
1.14397 20 0 0 20 0 0 0.555595 2.08911 1.01012
4.04381 5.13278 -0.182438 2.84795 1.52509 -0.505356 6.10474 -0.396976 0.266035 3.04182
0.935304 0.235139 2.42195 1.14074 0.619931 1.41795 2.66198 1.55777 0.802009 1.81472
0.910637 0.461891 2.32977 1.16299 3.42001 3.69219 -0.32714 4.55282 0.115796 0.641226
1.21942 1.53997 0.875223 0.498109 2.5018 1.34776 3.39755 1.17715 -0.0196524 2.2459
1.946 0.918767 3.07853 2.28215 -0.532468 3.84007 0.69898 0.734718 1.78651 1.29874
0.87912 0.64656 2.56569 1.53554 3.47406 1.19265 -0.398084 2.73148 1.40714 0.390117
2.99925 1.09312 0.456511 1.63226 2.4497 1.4873 3.29154 1.35035 -0.601226 3.39284
1.17145 0.565777 2.39574 1.1156 0.855873 0.877014 2.4991 1.68342 20 0
0 20 0 0 0.140372 1.92848 0.929789 4.57773 5.23565 -0.347411
5.10721 -1.03783 0.894292 0.451227 1.74825 0.875135 0.000471445 2.0676 1.06729 4.09336
3.82251 -0.527729 4.59131 -0.333844 1.56404 3.66167 1.00775 -0.117045 2.44221 1.7726
0.685745 3.33362 1.00263 0.290604 1.8457 2.17128 1.31521 0.940153 1.53813 0.903884
0.0112986 2.15403 1.27595 0.0984332 2.16264 1.43013 -0.0485843 2.07491 1.27087 0.204315
2.20846 1.52985 3.69087 0.933753 -0.449093 3.06349 1.48827 0.442921 2.87512 0.982109
0.739013 1.14522 2.31129 1.74207 3.68142 2.33114 -0.691452 4.3107 0.675504 1.66443
1.57032 1.31533 0.979998 0.154429 2.16816 1.5292 -0.1458 1.89374 1.05485 0.568511
2.23173 1.74236 -0.0735004 1.72699 0.930301 0.972061 2.14364 1.82391 3.66219 1.24866
-0.700232 3.98233 1.37884 1.23166 0.402948 2.08824 1.77398 2.22781 1.10864 1.01162
3.47431 0.859642 0.123564 2.13233 1.87378 1.04354 20 0 0 20
0 0 3.74114 0.776142 -0.198192 2.78475 1.6341 0.506278 3.1769 0.878594
0.514203 1.44896 2.02695 1.65784 -0.144251 1.66034 0.930471 0.153504 1.60593 0.912513
5.18183 5.23531 -0.549428 4.96795 -2.32134 1.25924 -0.31712 1.69012 1.04027 0.200565
1.59733 0.909675 0.201354 1.58963 0.913952 1.39199 1.95157 1.71106 4.90096 3.97755
-0.804727 4.74587 -1.11882 1.92772 -0.337878 1.69269 1.2463 0.734266 1.49184 0.961408
3.84042 0.737709 -0.542492 3.5987 1.63359 0.702894 0.725693 1.9051 1.94034 2.7955
0.957319 0.890792 4.45455 2.52339 -0.960441 4.71491 0.480464 1.98198 -0.211788 1.65804
1.53279 1.43386 1.34414 1.0447 1.80443 1.71781 1.43742 0.744144 1.47722 0.998706
1.86827 1.67498 1.39235 3.71565 0.720463 -0.0687603 2.54867 1.56098 0.721392 3.52122
0.806097 0.219352 1.86044 1.6691 1.40268 4.24135 1.3697 -0.938644 4.54655 1.54456
1.46825 0.0509026 1.56127 1.84534 2.21913 1.18409 1.06526 3.96218 0.612115 -0.364538
3.25958 1.55917 0.40464 1.14186 1.62057 1.94473 3.34859 0.891192 0.585589 20
0 0 20 0 0 -0.128992 1.36003 0.993521 5.84137 5.07249
-0.806286 4.94498 -3.38926 0.806185 -0.336809 1.28464 1.06393 0.21821 1.42521 1.00522
1.49643 1.39319 1.09839 2.49281 1.32092 0.940309 5.87778 4.11228 -1.19584 4.31096
0.77726 -0.810619 4.79234 -1.57965 1.12896 4.16934 1.83805 0.731751 0.447664 1.37918
2.09368 3.04108 1.07769 0.908597 -0.424812 1.21464 1.24305 0.761646 1.45131 1.06478
2.47696 1.25278 1.00244 4.18133 0.770726 -0.111415 5.55325 2.84972 -1.40891 4.86115
0.398063 1.0634 4.30572 0.651035 -0.343423 3.12856 1.26262 0.376872 1.76897 1.24445
1.71671 4.14117 0.901908 0.167561 -0.359628 1.14309 1.5342 1.52965 1.41923 1.1269
2.47079 1.3392 1.10519 4.63018 0.642008 -0.713384 3.84311 1.56524 0.177138 1.05487
1.104 2.15614 4.01613 1.07447 0.544652 5.32293 1.75002 -1.41033 4.85083 1.65494
0.692365 -0.0986271 1.04019 1.88649 2.49304 1.35291 1.10872 3.31197 1.00324 0.441557
2.89476 1.34177 1.04301 20 0 0 20 0 0 0.312096
1.08509 1.08339 6.50088 4.6818 -1.07265 5.07997 -3.78149 -0.056901 3.4371 0.826289
0.485685 5.23226 0.783711 -0.488946 2.78923 0.807269 1.23664 5.30637 0.94665 -0.282109
0.0798046 0.932275 1.10282 0.60703 1.26129 1.1407 5.42522 1.11714 -1.32916 4.6439
1.95123 0.0920646 0.420299 0.869426 2.17979 3.63696 1.32118 0.921622 6.97563 4.13462
-1.65395 4.95776 -1.6825 -0.195418 -0.112459 0.817826 1.23895 1.08779 1.41794 1.22845
5.3589 0.718201 -0.760212 4.00247 1.02872 -0.0670665 2.07226 0.751878 1.90404 5.30342
1.15061 0.0571774 3.75626 1.3637 0.951223 7.00261 3.202 -1.99941 5.00143 0.351284
-0.453678 -0.166061 0.729489 1.51176 1.86265 1.51066 1.29139 4.36435 0.800089 -0.0983451
5.94542 0.923038 -1.28157 4.63495 1.53878 -0.41481 1.36298 0.622241 2.23372 5.01335
1.37038 0.552093 6.98818 2.27707 -2.08387 5.12114 1.59891 -0.690196 0.0703536 0.631408
1.86831 2.94908 1.54034 1.26253 4.33998 0.387837 0.549782 6.77958 0.998829 -0.748411
4.87298 0.478751 -0.142308 6.65781 0.876036 -0.952454 3.68775 0.379811 1.28675 6.88366
1.23047 -0.462995 5.34545 1.4629 0.636754 20 0 0 7.25722 1.66325
-2.057 20 0 0 5.28656 1.84117 -1.02648 0.777568 0.482013 2.15143
4.30003 1.55751 1.08615 1.28349 0.867157 1.12885 7.04932 4.02883 -1.2533 5.53619
-3.69923 -0.890699 6.95533 0.960333 -1.34409 5.33408 0.846729 -0.699794 2.95375 0.334789
1.8669 6.61893 1.45988 0.0662479 1.06013 0.683771 1.08885 1.4488 1.10774 1.25791
7.99575 3.93253 -2.02893 5.55548 -1.69997 -1.43398 0.751213 0.563736 1.18298 1.74703
1.3556 1.41283 5.68139 0.700575 -0.740596 8.5607 3.41028 -2.55679 5.60415 0.152886
-1.88143 0.525639 0.483846 1.42719 2.37313 1.5359 1.52317 7.95824 1.39935 -2.02811
5.8752 1.36565 -1.30964 2.18307 0.277059 2.12184 5.81505 1.59371 0.756466 6.36578
0.0671931 -0.247333 8.4961 1.07594 -1.25417 5.8729 0.0659731 0.41546 8.62968 1.2673
-0.990484 7.0473 1.5516 0.214971 8.98263 2.75482 -2.78024 5.89926 1.27656 -2.07746
6.77709 0.239481 -0.869321 8.48447 1.07641 -1.5278 5.23882 0.0807872 1.06685 8.31796
1.50669 -0.465149 0.681721 0.403514 1.75711 3.376 1.61189 1.53244 9.11489 1.3472
-2.06602 7.19597 0.646962 -1.49897 4.41418 0.0627152 1.59705 7.32641 1.61136 0.311878
7.32434 0.607363 -1.51093 9.5494 2.23266 -2.82914 6.54818 1.47432 -2.20344 1.55784
0.282192 1.99042 4.62966 1.60707 1.39537 20 0 0 20 0
0 2.875 0.733187 1.07759 7.36371 3.17104 -1.23278 6.23956 -3.15821 -1.50904
2.69119 0.57604 0.982985 2.83969 0.968429 1.28578 8.65024 3.44982 -2.11318 6.58882
-1.615 -2.36486 8.38792 -0.161663 -0.518319 10.4792 1.28055 -1.5282 2.26219 0.490265
1.04451 2.83021 1.23277 1.52428 8.7054 -0.145296 -1.07591 10.4456 1.20795 -1.81178
8.02933 -0.0993424 0.0381722 9.99676 1.47088 -1.00606 8.59113 1.54258 -0.263262 8.21987
0.543778 -1.87955 9.74278 3.31844 -2.80519 10.4174 1.93179 -2.81238 6.87144 -0.144358
-2.95339 7.75796 1.03087 -2.28635 3.40094 0.108761 1.86884 5.88194 1.54632 1.09128
1.81299 0.442457 1.26291 3.1136 1.43194 1.70175 9.08085 0.0655166 -1.67461 10.6805
1.3691 -2.19216 7.34925 -0.0893915 0.642199 8.6815 1.55445 -0.196472 10.6733 2.98099
-3.19222 7.47046 0.759996 -3.17283 1.76636 0.391222 1.56347 3.7685 1.49505 1.7554
9.37948 0.471003 -2.36845 11.5848 1.78286 -2.80381 9.55979 0.408747 -2.37758 6.21744
-0.0812282 1.24636 6.90065 1.42794 0.643722 11.588 2.62491 -3.34229 8.56137 0.932986
-3.21031 11.0228 -0.312524 -1.40848 10.9803 -0.220941 -0.979352 12.4257 1.31618 -2.06924
11.6945 1.39066 -1.54413 2.61345 0.295581 1.76892 4.63523 1.41384 1.62719 9.91646
1.42536 -0.762783 20 0 0 20 0 0 11.2563 -0.266974
-1.91212 12.5511 1.39634 -2.39542 10.7412 -0.178368 -0.480652 9.9022 1.41728 -0.719604
5.16601 0.702792 0.907391 7.4281 2.29742 -0.975185 7.01274 -2.24494 -1.83586 5.02213
0.628 0.783795 4.88661 0.855845 1.16882 8.79883 2.76931 -1.7953 7.81078 -1.34651
-2.91534 4.43487 0.611531 0.837457 4.50144 1.04873 1.46295 12.5897 2.34944 -3.3521
10.1763 0.619705 -3.19222 4.6711 0.123896 1.64721 5.43045 1.22309 1.27965 11.6656
-0.0582932 -2.52444 12.9947 1.69476 -2.83564 9.78514 -0.211022 0.242484 7.65842 1.24477
0.116345 10.1514 2.91015 -2.5265 8.51698 -0.382517 -3.61684 3.68755 0.614169 1.04953
4.34383 1.18788 1.67763 11.3902 2.86567 -3.01966 9.47087 0.240949 -3.89018 3.2669
0.60022 1.34135 4.52593 1.19009 1.73719 11.6175 0.303153 -3.20979 11.2573 1.27453
-1.26655 13.7863 -0.295295 -1.87263 13.5015 1.3376 -2.07257 13.6629 -0.379415 -2.23792
14.3736 1.39613 -2.57675 14.1034 -0.212803 -1.5378 11.2059 1.26087 -1.23392 13.6815
2.14915 -3.30145 12.1347 0.189556 -3.2161 7.95493 -0.09755 1.08325 5.98591 0.967148
0.745068 12.5258 2.72236 -3.27063 10.7995 0.386473 -3.92195 13.8671 -0.308677 -2.7322
14.5526 1.61559 -2.90343 13.5357 -0.291176 -0.86427 8.35777 1.0178 -0.411448 3.74346
0.535519 1.57048 4.94463 1.02337 1.57412 20 0 0 20 0
0 8.2854 0.764112 0.615095 7.41709 1.64144 -0.617291 7.63232 -1.11534 -1.87875
8.14306 0.817258 0.507451 7.71476 0.769498 0.889675 8.68687 2.12435 -1.24138 8.74069
-0.818976 -3.03243 14.8229 1.98866 -3.23385 14.1431 -0.13896 -3.29461 11.9152 -0.266455
0.211613 6.38682 0.675006 0.132975 7.28605 0.892238 0.596368 6.9212 0.819288 1.195
13.5912 2.55149 -3.339 12.418 0.216847 -3.84847 5.52757 0.380871 1.56352 5.40992
0.72729 1.15335 12.89 1.18914 -1.78846 9.98838 2.39439 -1.84755 9.7719 -0.391021
-3.77022 16.2653 -0.326065 -2.60852 16.8385 -0.201248 -2.36386 15.3606 1.34328 -2.55482
12.8074 1.16911 -1.75012 6.12232 0.951123 0.829486 6.36327 0.834077 1.39715 13.3854
0.0644079 -3.80005 16.0914 -0.395918 -2.95813 15.9955 1.51448 -2.94633 16.8403 -0.269101
-1.91228 9.27963 0.81203 -0.896635 11.2324 2.54956 -2.3269 10.8861 -0.0911895 -4.05747
5.18222 0.977262 1.12366 6.16829 0.737873 1.42183 14.5866 2.37971 -3.29521 14.0864
-0.0460384 -3.76497 8.68504 0.167545 1.23763 5.83385 0.372501 0.535003 16.0224 -0.353399
-3.38017 15.9238 1.83718 -3.15858 14.9299 -0.373505 -0.753033 6.8366 0.371983 -0.425037
12.3854 2.60098 -2.64005 12.0891 -0.0482509 -4.05993 4.99792 0.959958 1.38115 6.29233
0.500539 1.21394 14.8774 1.21233 -2.32234 18.674 -0.221795 -2.87501 14.7544 1.17899
-2.26315 20 0 0 20 0 0 15.4876 2.20846 -3.19557
15.5902 -0.296689 -3.68569 12.0865 0.0181112 0.654024 6.25999 0.00376529 -0.127096 12.3684
0.883575 0.278465 7.57976 1.28064 -0.36402 7.89999 0.080192 -1.6534 18.0927 -0.389232
-3.10432 19.129 -0.162034 -2.64585 16.8437 1.38604 -2.88027 10.6642 0.709788 -1.3697
12.0573 1.07213 0.252136 11.4832 0.705749 0.518676 13.4434 2.57228 -2.79858 13.3039
-0.198336 -3.90343 5.95713 0.873966 1.50115 6.64558 0.153418 0.763743 8.75952 1.69872
-0.790023 8.95966 -0.116848 -2.65137 10.7046 1.22058 0.422887 10.2093 0.581831 0.808939
17.5974 -0.489117 -3.3907 16.8557 1.66446 -3.06056 17.185 -0.321327 -1.79516 7.49129
0.115803 -0.866275 13.7987 -0.294636 -3.81466 9.93714 2.01057 -1.21894 9.97334 -0.187518
-3.29456 9.0003 1.31649 0.68394 9.32306 0.459599 0.975366 16.7403 1.27881 -2.75952
11.0858 2.26083 -1.6033 14.396 2.47902 -2.84308 10.967 -0.260732 -3.52749 14.4264
-0.416789 -3.70204 8.08323 0.751783 1.42472 7.53623 1.37704 0.951965 7.16404 -0.237799
0.156962 8.93543 0.266168 0.955768 16.8018 -0.521086 -3.57671 16.2615 2.03022 -3.07361
13.557 -0.0578929 -0.17557 6.70321 -0.350734 -0.677346 19.516 -0.364009 -3.06282 20.1659
-0.174527 -2.90262 16.6784 1.21455 -2.68715 12.719 0.779975 -1.8827 12.1762 2.4289
-1.91496 11.9011 -0.428723 -3.48848 6.69596 1.4208 1.17614 8.97017 -0.0144083 0.729027
18.6895 -0.577965 -3.27204 17.5052 1.46085 -2.93993 19.4639 -0.159785 -2.57445 8.54606
-0.0149196 -1.23859 15.2323 2.33395 -2.82116 15.3931 -0.632579 -3.50141 10.1595 0.708005
1.0911 7.7633 -0.627078 -0.452347 20 0 0 20 0 0
16.2364 0.993056 -0.0278874 17.6121 1.38144 -2.90164 8.00431 1.08552 -0.288091 13.1964
2.50368 -2.14235 7.78056 1.12295 -1.26455 12.7743 -0.664193 -3.31234 17.6455 -0.70661
-3.40531 16.916 1.8261 -2.94306 14.78 -0.0583863 -1.27768 6.68844 1.43921 1.32613
7.13827 -0.639073 -1.05286 15.31 1.14625 0.0641341 9.35558 -0.356363 0.317614 15.6065
0.735479 0.141074 9.16683 1.44021 -0.598428 8.57376 0.541985 -1.96007 13.5007 1.23689
0.322256 14.1509 0.474394 0.423301 13.055 -0.737302 -3.24972 10.3033 1.76769 -0.906667
9.39997 0.0669688 -2.429 11.631 1.32669 0.591141 13.0897 0.253166 0.58312 15.9632
2.15417 -2.77042 16.1921 -0.821741 -3.31082 10.7866 0.700836 0.367803 8.25827 -0.982525
-0.925956 14.1314 2.48077 -2.29234 13.6161 -0.883436 -3.12455 20.2769 -0.350744 -2.8571
15.4203 0.899535 -2.4269 7.46038 1.43835 1.3569 9.99848 -0.711622 -0.192391 17.5056
1.55362 -2.84361 11.4217 2.05712 -1.19486 10.2829 -0.355339 -2.60691 19.3428 -0.625582
-3.03324 20.6224 -0.157761 -2.76503 17.8209 1.2263 -2.82684 10.4006 0.0941036 -1.64575
10.1096 1.44186 0.796503 12.6772 0.00632766 0.552355 17.4514 1.6008 -2.82986 18.1983
-0.837199 -3.17895 17.5058 1.57793 -2.81837 18.0428 -0.000866087 -2.24793 7.73327 -0.79271
-1.30491 12.4851 2.27239 -1.45926 11.1954 -0.741342 -2.61299 9.07278 1.59363 0.941538
12.754 -0.277246 0.360095 14.9688 2.37046 -2.37929 14.4585 -1.04227 -2.97222 8.32896
1.48224 1.15247 10.7064 -1.04854 -0.680129 16.8592 -0.973958 -3.13078 16.6318 1.94226
-2.70982 12.0197 0.572127 -0.712131 8.47252 -1.25123 -1.20568 13.468 2.39331 -1.69072
12.1199 -1.05213 -2.5458 8.47251 1.75882 1.05764 13.2045 -0.57371 0.0443984 20
0 0 20 0 0 18.1241 0.850111 -0.202214 8.54793 0.895491
-0.323559 7.44109 1.91824 -0.858056 16.425 0.759789 -0.0133817 18.6378 0.745197 -0.159595
16.8461 1.85799 -2.689 12.3785 -1.10838 -2.52788 9.70154 1.22033 -0.581577 7.96033
1.03747 -1.26822 19.7911 -0.606007 -2.74938 20.6339 -0.299731 -2.6331 17.664 0.91406
-2.72389 13.5137 0.340265 -2.16508 14.749 0.662387 0.247734 17.7993 0.497457 0.0903879
18.6423 -0.894867 -2.93151 18.0683 1.27615 -2.72439 20.4632 -0.0297801 -2.58921 9.06068
-0.679575 -1.55649 16.5375 1.96203 -2.5949 10.8337 1.56047 -0.827802 8.63947 0.282131
-1.57736 15.7171 2.20014 -2.42274 15.3043 -1.14885 -2.85774 8.87424 1.47096 0.598028
13.6028 0.686403 0.456245 11.1391 -1.33873 -1.02748 16.9099 0.266668 0.272392 14.3469
2.41354 -1.88193 13.0439 -1.25309 -2.48176 8.2135 1.87864 1.11421 13.8795 -0.845149
-0.337218 11.9664 1.87314 -1.05376 9.55985 -0.373443 -1.73759 17.4472 -1.07713 -2.95108
17.2919 1.68268 -2.64571 16.2766 0.409638 -1.7903 8.55362 -1.36899 -1.33434 12.8951
0.848965 0.556885 16.6504 0.0419828 0.263188 16.0679 2.09314 -2.43158 13.0445 2.11092
-1.26798 10.6968 -0.894252 -1.84329 12.4041 1.13574 0.583771 16.8164 -0.208171 0.134093
15.7495 2.19565 -2.27654 15.1114 2.33905 -2.02532 13.9642 -1.35334 -2.44298 8.20639
1.92105 1.00956 14.4894 -1.06052 -0.699588 16.4105 1.98864 -2.4402 16.1193 -1.22485
-2.76012 10.7728 1.18825 -0.308075 11.0043 -1.52553 -1.17788 20.1984 -0.492156 -2.50102
16.9627 0.461502 -2.57451 15.3556 2.28524 -2.06119 19.0984 -0.857272 -2.68577 20.8105
-0.141434 -2.45977 18.5514 0.912386 -2.67074 11.9757 -0.342743 -1.93126 14.02 2.25424
-1.46802 11.9069 -1.24258 -1.9156 11.7319 1.45584 0.641009 17.2374 -0.448753 -0.0754678
15.2278 2.31872 -1.96492 20 0 0 20 0 0 17.995
-1.11535 -2.76747 17.9743 1.35824 -2.58253 20.0179 0.268297 -2.3278 9.25427 -1.23177
-1.4451 18.3725 0.399391 -0.16047 12.2567 -1.30027 -1.93345 9.00868 0.640493 -0.375737
7.04442 2.45816 -0.485099 16.5264 0.179302 0.076654 19.9068 0.490094 -0.281707 10.1214
0.98898 -0.612118 7.28339 1.3877 -0.675119 15.5473 -0.0220566 0.272966 20.0753 0.392867
-0.143162 14.7842 2.31894 -1.68238 15.7834 2.19096 -2.12404 14.8767 -1.39263 -2.42033
8.80386 1.78426 0.637949 14.5754 -1.1993 -0.932535 14.5966 2.28758 -1.59186 11.2458
1.3492 -0.829855 7.78781 0.462297 -0.867741 15.4816 -0.0852231 0.374522 19.672 0.218027
0.0284141 14.1922 2.20668 -1.43956 14.8591 2.30275 -1.64823 13.0282 -1.42748 -1.97282
16.8672 -1.27627 -2.65594 17.0994 1.73208 -2.4403 15.598 0.840902 -1.33797 10.8028
1.66186 0.744826 10.5286 -1.54733 -1.18084 17.7205 -0.631264 -0.330231 13.381 1.99771
-1.22789 11.9954 1.56481 -0.955401 12.3813 1.69701 -1.02695 11.2711 1.32046 -0.82915
10.1761 0.921232 -0.613684 9.10993 0.532198 -0.380038 20 0 0 12.411
1.68438 -1.02503 8.71422 -0.331717 -1.01487 16.0109 0.0218448 0.32665 19.5881 0.0464266
0.030299 19.6 -0.709678 -2.45684 20.5534 -0.280926 -2.29972 18.8742 0.490888 -2.61738
16.136 -0.0841978 -2.34482 16.4074 1.99033 -2.18863 15.7575 -1.40962 -2.39456 11.6465
1.38532 -0.109112 13.8921 -1.25081 -0.975844 13.5412 1.94382 -1.2088 15.5512 2.26226
-1.79714 10.1348 -0.927263 -1.2079 14.0171 -1.49927 -2.02094 18.5371 -1.0685 -2.58298
18.6629 0.971731 -2.52362 20.8713 0.110703 -2.28268 10.2514 1.63919 0.761104 11.7288
-0.869407 -1.69171 16.5958 0.278527 0.174885 17.9822 -0.71069 -0.577478 19.7394 -0.144081
-0.0584397 17.543 -1.28823 -2.53882 17.8224 1.4164 -2.42165 19.796 0.590967 -1.97098
10.7612 -1.3592 -1.19805 14.5549 2.10651 -1.37963 11.7707 -1.2857 -1.40264 16.3638
0.586078 0.123909 19.9553 -0.311489 -0.18425 20 0 0 20 0
0 18.731 -0.0368573 -0.0667536 12.4419 -1.3651 -1.47696 9.29055 0.339023 -0.38771
16.1267 2.14528 -1.91059 6.65148 2.75835 -0.166321 14.9172 -1.51368 -2.05756 11.3312
1.38459 0.482147 17.3622 -0.144493 0.167029 17.6722 -0.698678 -0.746944 20.2432 0.0601355
-0.258923 10.3196 0.743647 -0.617786 6.60629 1.62766 -0.191689 17.0356 1.74315 -2.22911
16.5732 -1.42022 -2.34988 16.6623 1.0162 -1.04384 16.9942 -0.254232 0.30869 13.0122
-1.20265 -0.898708 20.8308 0.084074 -0.236907 15.4043 2.17803 -1.5353 13.1891 -1.45352
-1.55972 15.3032 0.806678 0.255772 20.1014 -0.413383 -0.331396 11.4343 1.1349 -0.824601
6.85328 0.617327 -0.286379 20.104 -0.463088 -2.24511 19.027 0.0505685 -2.48856 17.5127
-0.296652 0.328652 20.8032 -0.0118464 -0.140776 19.0984 -0.916965 -2.39809 20.7807 -0.0266593
-2.12148 19.2988 0.560329 -2.4583 15.9413 -0.551953 -2.05338 12.6583 1.49707 -1.00918
7.61851 -0.249532 -0.390073 18.6694 -0.224505 0.179395 20.7735 -0.143044 -0.145625 18.1699
-1.23345 -2.41279 18.5739 1.04508 -2.37762 20.8836 0.360059 -2.04334 12.9936 -1.04593
-1.39582 16.6431 1.96627 -1.99277 15.7632 -1.50982 -2.0736 14.9142 1.10718 -0.191754
16.7689 -0.661902 -0.775948 16.0795 2.16788 -1.66859 14.284 -1.51622 -1.67194 14.8078
0.838788 0.327193 20.0746 -0.428833 -0.477447 13.8886 1.78123 -1.18098 9.23249 -0.881099