# vtk DataFile Version 2.0
track0
ASCII
DATASET POLYDATA
POINTS 54 float
3.4474336 -0.27521519 0.55501216
3.4474336 -0.27521519 0.55501216
3.1341698 0.16646421 0.51429684
3.1341698 0.16646421 0.51429684
4.0815903 0.70162523 1.4052508
3.8424231 0.074236678 0.62056466
4.0262217 0.61223243 1.0569503
4.5139471 0.44849844 0.38169203
4.5209989 0.26069754 0.42142662
3.799379 0.1027017 0.64118836
3.6629708 0.41489588 0.97204021
4.1302708 0.49209478 1.3614485
4.0815903 0.70162523 1.4052508
3.8424231 0.074236678 0.62056466
4.0262217 0.61223243 1.0569503
4.5139471 0.44849844 0.38169203
4.5209989 0.26069754 0.42142662
3.799379 0.1027017 0.64118836
3.6629708 0.41489588 0.97204021
4.1302708 0.49209478 1.3614485
4.1794676 -0.094803647 1.246819
4.1217028 0.053947806 1.2320224
3.8996456 -0.58530787 0.38272704
3.8105057 0.23058459 1.5970868
4.0689856 0.11728366 1.4812541
3.7055036 -0.47009705 1.011583
3.945324 -0.007029512 0.95497489
3.8169106 -0.15225577 0.83242257
4.5640504 -0.63051659 0.20767149
4.2480372 -0.026235032 0.48639527
3.4552855 -0.48723315 1.2954433
3.8202611 -0.60189892 0.092323278
4.6570525 -0.14463531 1.4059207
3.4623889 -0.65825305 1.0872325
4.1794676 -0.094803647 1.246819
4.1217028 0.053947806 1.2320224
3.8996456 -0.58530787 0.38272704
3.8105057 0.23058459 1.5970868
4.0689856 0.11728366 1.4812541
3.7055036 -0.47009705 1.011583
3.945324 -0.007029512 0.95497489
3.8169106 -0.15225577 0.83242257
4.5640504 -0.63051659 0.20767149
4.2480372 -0.026235032 0.48639527
3.4552855 -0.48723315 1.2954433
3.8202611 -0.60189892 0.092323278
4.6570525 -0.14463531 1.4059207
3.4623889 -0.65825305 1.0872325
4.7966093 0.099938885 0.30809495
4.5976571 0.46143523 0.99786495
4.697717 0.15046046 0.83602763
4.7966093 0.099938885 0.30809495
4.5976571 0.46143523 0.99786495
4.697717 0.15046046 0.83602763
LINES 54 108
1 0
1 1
1 2
1 3
1 4
1 5
1 6
1 7
1 8
1 9
1 10
1 11
1 12
1 13
1 14
1 15
1 16
1 17
1 18
1 19
1 20
1 21
1 22
1 23
1 24
1 25
1 26
1 27
1 28
1 29
1 30
1 31
1 32
1 33
1 34
1 35
1 36
1 37
1 38
1 39
1 40
1 41
1 42
1 43
1 44
1 45
1 46
1 47
1 48
1 49
1 50
1 51
1 52
1 53
POINT_DATA 54
 FIELD attributes 1
U 3 54 float
0 	0 	0
0 	0 	0
0 	0 	0
0 	0 	0
0 	0 	0
0 	0 	0
0 	0 	0
0 	0 	0
0 	0 	0
0 	0 	0
0 	0 	0
0 	0 	0
0 	0 	0
0 	0 	0
0 	0 	0
0 	0 	0
0 	0 	0
0 	0 	0
0 	0 	0
0 	0 	0
0 	0 	0
0 	0 	0
0 	0 	0
0 	0 	0
0 	0 	0
0 	0 	0
0 	0 	0
0 	0 	0
0 	0 	0
0 	0 	0
0 	0 	0
0 	0 	0
0 	0 	0
0 	0 	0
0 	0 	0
0 	0 	0
0 	0 	0
0 	0 	0
0 	0 	0
0 	0 	0
0 	0 	0
0 	0 	0
0 	0 	0
0 	0 	0
0 	0 	0
0 	0 	0
0 	0 	0
0 	0 	0
0 	0 	0
0 	0 	0
0 	0 	0
0 	0 	0
0 	0 	0
0 	0 	0
