# vtk DataFile Version 2.0
sampleSurface
ASCII
DATASET POLYDATA
POINTS 4972 float
4 2.90752e-06 0 4 -0.0312483 0 4 2.85017e-06 0.0312519 4 0.031254
0 4 -0.0312483 0.0312519 4 0.031254 0.0312519 4 -0.0624994 0
4 2.75539e-06 0.0625039 4 0.062505 0 4 -0.0624995 0.0312519 4
-0.0312484 0.0625039 4 0.0312539 0.0625038 4 0.062505 0.0312519 4 -0.0624996
0.0625038 4 0.0625049 0.0625038 4 -0.0937506 0 4 2.62364e-06 0.0937558
4 0.093756 0 4 -0.0937506 0.0312519 4 -0.0312486 0.0937557 4
0.0937559 0.0312518 4 0.0312537 0.0937557 4 -0.0937507 0.0625037 4 -0.0624998
0.0937557 4 0.0937558 0.0625036 4 0.0625048 0.0937556 4 -0.125002 0
4 0.125007 0 4 2.45461e-06 0.125008 4 -0.125002 0.0312518 4
0.125007 0.0312518 4 -0.0312487 0.125008 4 0.0312536 0.125008 4 -0.0937509
0.0937555 4 0.0937557 0.0937554 4 -0.125002 0.0625035 4 -0.0624999 0.125007
4 0.125007 0.0625035 4 0.0625046 0.125007 4 -0.156253 0 4
-0.125002 0.0937553 4 -0.0937511 0.125007 4 0.156257 0 4 0.125006
0.0937552 4 0.0937555 0.125007 4 2.2494e-06 0.156259 4 -0.156253 0.0312517
4 0.156257 0.0312517 4 -0.031249 0.156259 4 0.0312534 0.156259 4
-0.156253 0.0625034 4 0.156257 0.0625033 4 -0.0625002 0.156259 4 0.0625044
0.156259 4 -0.125002 0.125007 4 0.125006 0.125007 4 -0.156253 0.093755
4 -0.0937514 0.156259 4 0.156257 0.0937549 4 0.0937553 0.156259 4
-0.187503 0 4 0.187508 0 4 2.0071e-06 0.187511 4 -0.187503
0.0312516 4 0.187508 0.0312516 4 -0.0312492 0.187511 4 0.0312532 0.187511
4 -0.187504 0.0625032 4 0.187508 0.0625031 4 -0.0625005 0.187511 4
0.0625042 0.187511 4 -0.156253 0.125007 4 -0.125002 0.156259 4 0.156257
0.125007 4 0.125006 0.156259 4 -0.187504 0.0937547 4 0.187507 0.0937546
4 -0.0937517 0.187511 4 0.0937551 0.187511 4 -0.218754 0 4
0.218758 0 4 1.73283e-06 0.218763 4 -0.218754 0.0312515 4 0.218758
0.0312515 4 -0.156253 0.156258 4 0.156257 0.156258 4 -0.0312495 0.218763
4 0.0312529 0.218763 4 -0.187504 0.125006 4 0.187507 0.125006 4
-0.125003 0.18751 4 0.125006 0.18751 4 -0.218754 0.0625029 4 0.218758
0.0625029 4 -0.0625008 0.218763 4 0.0625039 0.218763 4 -0.218754 0.0937544
4 0.218758 0.0937543 4 -0.093752 0.218762 4 0.0937549 0.218762 4
-0.187504 0.156258 4 -0.156254 0.18751 4 0.187507 0.156258 4 0.156257
0.18751 4 -0.250004 0 4 0.250008 0 4 1.43381e-06 0.250015
4 -0.250005 0.0312514 4 -0.218755 0.125006 4 0.250008 0.0312513 4
0.218758 0.125006 4 -0.125003 0.218762 4 0.125006 0.218762 4 -0.0312498
0.250015 4 0.0312526 0.250014 4 -0.250005 0.0625027 4 0.250008 0.0625027
4 -0.0625011 0.250014 4 0.0625037 0.250014 4 -0.187505 0.187509 4
0.187507 0.187509 4 -0.250005 0.093754 4 0.250008 0.093754 4 -0.0937523
0.250014 4 0.0937546 0.250014 4 -0.218755 0.156257 4 0.218757 0.156257
4 -0.156254 0.218761 4 0.156256 0.218761 4 -0.250005 0.125005 4
0.250008 0.125005 4 -0.125003 0.250014 4 0.125005 0.250013 4 -0.281255
0 4 0.281258 0 4 1.11352e-06 0.281266 4 -0.281255 0.0312512
4 0.281258 0.0312512 4 -0.0312501 0.281266 4 0.0312523 0.281266 4
-0.281255 0.0625025 4 0.281258 0.0625024 4 -0.218755 0.187509 4 0.218757
0.187508 4 -0.187505 0.218761 4 0.187507 0.21876 4 -0.0625014 0.281266
4 0.0625033 0.281266 4 0.0815282 0.281265 4 0.0625033 0.286625 4
0.0937543 0.278097 4 -0.250005 0.156257 4 0.250008 0.156256 4 -0.156254
0.250013 4 0.156256 0.250012 4 -0.281255 0.0937537 4 0.281258 0.0937536
4 -0.0937526 0.281266 4 0.0937542 0.281265 4 0.0312521 0.295659 4
0.125005 0.27035 4 8.6292e-07 0.304749 4 0.156256 0.262911 4 -0.281255
0.125005 4 0.281258 0.125005 4 0.125005 0.281264 4 -0.125004 0.281265
4 -0.218756 0.21876 4 0.218757 0.21876 4 -0.312505 0 4
0.312508 0 4 -0.250006 0.187508 4 0.250007 0.187508 4 -0.187505
0.250012 4 0.187506 0.250012 4 7.80021e-07 0.312517 4 -0.0269853 0.312517
4 -0.312505 0.0312511 4 0.312508 0.0312511 4 0.0312519 0.312517 4
-0.0312505 0.312517 4 -0.0312505 0.313916 4 0.187506 0.255809 4 -0.312505
0.0625022 4 0.312508 0.0625022 4 0.062503 0.312517 4 -0.0625017 0.312517
4 -0.281256 0.156256 4 0.281258 0.156256 4 0.156256 0.281264 4
-0.156255 0.281264 4 -0.312505 0.0937533 4 0.312508 0.0937532 4 0.0937539
0.312516 4 -0.093753 0.312517 4 0.214502 0.250011 4 -0.0625018 0.323793
4 0.218757 0.249112 4 -0.250006 0.218759 4 0.250007 0.218759 4
-0.218756 0.250011 4 0.218757 0.250011 4 -0.312505 0.125004 4 0.312508
0.125004 4 0.125005 0.312515 4 -0.125004 0.312516 4 -0.281256 0.187507
4 0.281257 0.187507 4 0.187506 0.281263 4 -0.187506 0.281263 4
-0.343755 0 4 0.343758 0 4 4.42059e-07 0.343769 4 -0.343755
0.031251 4 0.343758 0.031251 4 0.0312516 0.343768 4 -0.0312508 0.343769
4 -0.0937532 0.33293 4 0.250007 0.243101 4 -0.343755 0.062502 4
-0.312506 0.156255 4 0.343758 0.0625019 4 0.312507 0.156255 4 0.156255
0.312515 4 -0.156255 0.312515 4 0.0625026 0.343768 4 -0.062502 0.343768
4 0.250007 0.25001 4 -0.250007 0.25001 4 -0.343755 0.0937529 4
0.343758 0.0937529 4 -0.281256 0.218758 4 0.281257 0.218758 4 0.218756
0.281262 4 -0.218756 0.281262 4 0.0937535 0.343767 4 -0.0937533 0.343768
4 -0.125004 0.341229 4 -0.312506 0.187506 4 0.312507 0.187506 4
0.187506 0.312514 4 -0.187506 0.312515 4 -0.343755 0.125004 4 0.343757
0.125004 4 0.125004 0.343766 4 -0.125004 0.343767 4 0.281257 0.237336
4 -0.135979 0.343767 4 -0.375004 0 4 0.375008 0 4
1.09444e-07 0.375019 4 -0.375005 0.0312509 4 0.375007 0.0312509 4 0.281257
0.250009 4 -0.281257 0.250009 4 0.250006 0.281261 4 -0.250007 0.281261
4 0.0312512 0.375019 4 -0.0312511 0.375019 4 -0.343756 0.156255 4
0.343757 0.156255 4 0.156255 0.343765 4 -0.156256 0.343766 4 -0.375005
0.0625017 4 0.375007 0.0625017 4 0.0625022 0.375019 4 -0.0625023 0.375019
4 -0.312506 0.218758 4 0.312507 0.218757 4 0.218756 0.312513 4
-0.218757 0.312514 4 -0.156256 0.349389 4 -0.375005 0.0937526 4 0.375007
0.0937525 4 0.0937531 0.375018 4 -0.0937536 0.375019 4 0.312507 0.231749
4 -0.343756 0.187506 4 0.343757 0.187506 4 0.187505 0.343764 4
-0.187506 0.343765 4 -0.375005 0.125003 4 0.375007 0.125003 4 0.125004
0.375017 4 -0.125005 0.375018 4 0.281256 0.28126 4 -0.281257 0.28126
4 0.312507 0.250008 4 -0.312507 0.250008 4 0.250006 0.312512 4
-0.250007 0.312512 4 -0.187507 0.356711 4 -0.406254 0 4 -0.375005
0.156254 4 0.406257 0 4 0.375007 0.156254 4 0.156254 0.375016
4 -0.156256 0.375017 4 -2.07883e-07 0.40627 4 -0.406254 0.0312508 4
0.406257 0.0312507 4 -0.343756 0.218757 4 0.343757 0.218756 4 0.218756
0.343763 4 -0.218757 0.343764 4 0.0312509 0.40627 4 -0.0312514 0.40627
4 -0.406254 0.0625015 4 0.406257 0.0625015 4 0.0625019 0.406269 4
-0.0625026 0.40627 4 0.343757 0.226278 4 -0.406254 0.0937522 4 0.406257
0.0937522 4 0.0937527 0.406268 4 -0.0937538 0.406269 4 -0.375006 0.187505
4 0.375007 0.187505 4 0.187505 0.375015 4 -0.187507 0.375016 4
0.312506 0.281259 4 -0.312507 0.281259 4 0.281256 0.31251 4 -0.281258
0.312511 4 -0.218757 0.362686 4 -0.406255 0.125003 4 0.406257 0.125003
4 0.343757 0.250007 4 -0.343757 0.250008 4 0.250006 0.343762 4
-0.250008 0.343763 4 0.125003 0.406267 4 -0.125005 0.406269 4 -0.375006
0.218756 4 0.375006 0.218756 4 0.218755 0.375014 4 -0.218757 0.375015
4 0.375006 0.220884 4 -0.406255 0.156254 4 0.406257 0.156254 4
0.156254 0.406266 4 -0.156256 0.406268 4 -0.437504 0 4 0.437507
0 4 -4.97918e-07 0.43752 4 -0.437504 0.0312506 4 0.437507 0.0312506
4 0.0312506 0.43752 4 -0.0312516 0.43752 4 -0.437504 0.0625013 4
0.437506 0.0625013 4 0.312506 0.312509 4 -0.312508 0.31251 4 0.0625015
0.437519 4 -0.0625028 0.43752 4 0.343756 0.281258 4 -0.343757 0.281258
4 0.281256 0.343761 4 -0.281258 0.343762 4 -0.250008 0.367245 4
0.388542 0.218755 4 -0.437504 0.0937519 4 -0.406255 0.187504 4 0.437506
0.0937519 4 0.406256 0.187504 4 0.187504 0.406265 4 -0.187507 0.406267
4 0.0937523 0.437518 4 -0.093754 0.43752 4 0.375006 0.250006 4
-0.375006 0.250007 4 0.250005 0.375013 4 -0.250008 0.375014 4 -0.437504
0.125003 4 0.437506 0.125003 4 0.125003 0.437517 4 -0.125005 0.437519
4 0.406256 0.215628 4 -0.406256 0.218755 4 0.406256 0.218755 4
0.218755 0.406264 4 -0.218758 0.406266 4 -0.437504 0.156253 4 0.437506
0.156253 4 0.343756 0.312508 4 0.312506 0.34376 4 -0.343757 0.312509
4 -0.312508 0.343761 4 0.156253 0.437516 4 -0.156256 0.437518 4
-0.281258 0.370302 4 -0.468753 0 4 0.468756 0 4 0.375006
0.281257 4 -0.375007 0.281257 4 0.281255 0.375011 4 -0.281258 0.375013
4 -7.52289e-07 0.46877 4 -0.468753 0.0312506 4 0.468756 0.0312505 4
0.0312503 0.46877 4 -0.0312518 0.46877 4 -0.468753 0.0625011 4 0.468756
0.0625011 4 0.0625012 0.468769 4 -0.062503 0.46877 4 -0.437505 0.187504
4 0.437506 0.187504 4 0.187504 0.437515 4 -0.187507 0.437517 4
0.406256 0.250005 4 -0.406256 0.250006 4 0.250005 0.406263 4 -0.250008
0.406265 4 -0.468753 0.0937516 4 0.468756 0.0937516 4 0.0937519 0.468768
4 -0.0937541 0.468769 4 -0.468753 0.125002 4 0.468756 0.125002 4
0.125003 0.468767 4 -0.125005 0.468769 4 0.437506 0.210501 4 -0.312508
0.371724 4 0.343755 0.343759 4 -0.343758 0.34376 4 0.375006 0.312507
4 -0.375007 0.312508 4 0.312505 0.37501 4 -0.312508 0.375012 4
-0.437505 0.218754 4 0.437506 0.218754 4 0.218754 0.437514 4 -0.218758
0.437516 4 -0.468754 0.156253 4 0.468756 0.156253 4 0.406256 0.281256
4 -0.406256 0.281257 4 0.281255 0.406262 4 -0.281258 0.406263 4
0.156253 0.468766 4 -0.156256 0.468768 4 -0.500002 0 4 0.500006
0 4 -9.63934e-07 0.50002 4 -0.500002 0.0312505 4 0.500006 0.0312505
4 0.03125 0.500019 4 -0.031252 0.50002 4 -0.500003 0.0625009 4
0.500006 0.0625009 4 -0.437505 0.250005 4 0.437506 0.250005 4 0.250004
0.437513 4 -0.250008 0.437515 4 0.0625008 0.500019 4 -0.0625031 0.500019
4 -0.468754 0.187503 4 0.468756 0.187503 4 0.187503 0.468765 4
-0.187507 0.468767 4 -0.343758 0.371295 4 -0.500003 0.0937514 4 0.500005
0.0937514 4 0.375005 0.343758 4 0.343755 0.375009 4 -0.375007 0.343759
4 -0.343758 0.37501 4 0.0937516 0.500018 4 -0.0937542 0.500019 4
0.468755 0.205624 4 0.406255 0.312506 4 -0.406257 0.312507 4 0.312505
0.40626 4 -0.312508 0.406262 4 -0.500003 0.125002 4 0.500005 0.125002
4 0.125002 0.500017 4 -0.125005 0.500019 4 -0.468754 0.218754 4
0.468755 0.218754 4 0.218754 0.468764 4 -0.218758 0.468766 4 0.437505
[...]
POINT_DATA 4972
FIELD attributes 1
p 1 4972 float
-17.2068 -16.8844 -17.2433 -17.5881 -16.9221 -17.6091 -16.633 -17.3659 -18.0152 -16.6699 -17.0428
-17.7256 -18.0012 -16.7902 -18.0849 -16.4701 -17.4432 -18.3924 -16.4935 -17.1063 -18.3463
-17.8168 -16.6019 -16.8392 -18.39 -18.1829 -16.3603 -18.6212 -17.3765 -16.3625 -18.5587
-17.0305 -17.7631 -16.6442 -18.488 -16.4505 -16.7591 -18.578 -18.1521 -16.2632 -16.4972
-16.5755 -18.7112 -18.6791 -18.4864 -17.256 -16.2525 -18.6371 -16.9137 -17.6602 -16.3186
-18.6365 -16.6698 -18.0845 -16.4598 -18.7043 -16.368 -16.5383 -18.7393 -18.4573 -16.1373
-18.7238 -17.1595 -16.1296 -18.6404 -16.8235 -17.5811 -16.1795 -18.613 -16.6163 -18.0355
-16.374 -16.4899 -18.7865 -18.7063 -16.2269 -18.7008 -16.5511 -18.4404 -15.9755 -18.7112
-17.1231 -15.9785 -18.6359 -16.4729 -18.8188 -16.7977 -17.5574 -16.2803 -18.7676 -16.5825
-18.723 -16.0145 -18.5861 -16.6301 -18.0369 -16.0586 -18.6373 -16.6296 -18.4762 -16.4388
-16.6374 -18.8459 -18.8792 -15.8122 -18.7313 -17.1269 -15.8175 -16.1583 -18.6876 -18.7194
-16.7348 -18.8068 -16.817 -17.5689 -15.8317 -18.6398 -16.6903 -18.0737 -16.6572 -18.9735
-15.8681 -18.6471 -16.7492 -18.5592 -16.3634 -18.8601 -16.8519 -19.029 -16.0027 -18.7285
-16.916 -18.9625 -15.6424 -18.8358 -17.1294 -15.6418 -18.825 -16.8429 -17.5753 -15.6354
-18.7889 -16.6174 -19.0773 -16.9136 -19.2088 -16.7595 -18.1115 -18.4436 -18.1151 -18.6471
-16.2373 -18.9191 -17.0812 -19.2792 -15.6611 -18.7576 -16.8702 -18.657 -17.5665 -19.0851
-17.109 -19.4028 -15.8056 -18.8258 -19.1509 -17.0883 -16.8993 -19.4108 -15.4467 -18.9522
-16.5084 -19.2205 -17.177 -19.5593 -17.1022 -16.8746 -15.4209 -18.9439 -17.5562 -16.8386
-16.8353 -19.6348 -15.3878 -18.9054 -18.132 -16.8001 -16.0474 -19.046 -19.5786 -17.2981
-15.4082 -18.8771 -18.744 -16.9615 -19.8174 -16.7886 -19.8452 -16.7992 -19.6488 -17.1852
-19.858 -15.548 -18.9662 -19.3305 -17.2312 -16.3174 -19.4107 -19.9662 -17.4314 -15.0466
-18.9522 -17.0213 -15.0247 -18.9296 -17.499 -16.7654 -16.9804 -20.0671 -15.0138 -15.7905
-18.9027 -19.2217 -19.8646 -17.4968 -18.1208 -16.7683 -20.1858 -17.092 -15.069 -18.937
-16.6018 -19.911 -20.3666 -17.4657 -18.7964 -16.9904 -17.3226 -16.057 -19.6314 -20.3642
-17.686 -15.2349 -19.0889 -19.463 -17.3307 -20.272 -17.4553 -14.4748 -18.8774 -16.8694
-14.493 -18.8426 -20.5183 -16.8875 -20.8 -17.3821 -17.3899 -16.595 -15.494 -19.3887
-20.0921 -17.6855 -14.5619 -18.836 -18.0544 -16.6258 -16.3302 -20.171 -20.9001 -17.7593
-17.7184 -14.7019 -18.9432 -18.7805 -16.917 -20.4405 -15.7637 -19.8244 -20.7199 -17.9745
-14.9287 -19.1591 -19.5107 -17.3667 -21.2373 -17.1682 -20.8194 -16.6027 -21.5029 -17.6873
-18.1217 -14.0888 -15.2088 -18.8019 -19.4932 -20.232 -17.8685 -16.6116 -14.1127 -18.7588
-16.0259 -20.3706 -21.4414 -18.1281 -17.1798 -16.2949 -14.22 -18.7658 -17.88 -16.3279
-20.5295 -14.4306 -18.9212 -18.6471 -16.6944 -15.4797 -19.9336 -21.0057 -18.3299 -21.6294
-16.865 -22.1257 -17.4593 -18.4463 -14.7057 -19.1776 -21.0309 -16.2788 -22.2819 -18.0928
-19.4398 -17.2921 -15.7245 -20.4571 -21.9393 -18.6537 -20.5007 -14.9994 -19.5246 -20.2594
-18.0015 -13.9527 -18.7399 -16.1763 -13.9725 -18.7008 -16.7947 -15.8174 -14.0918 -18.7242
-22.68 -17.1372 -17.5484 -15.8419 -21.8977 -16.5203 -23.1557 -17.8641 -18.5889 -20.4404
-14.3349 -15.2647 -18.9016 -19.9425 -21.1804 -18.7218 -18.3761 -16.2693 -21.0975 -15.941
-23.0448 -18.753 -14.6339 -19.1703 -19.2476 -17.0081 -20.3709 -15.4764 -20.4186 -22.3161
-19.3389 -14.9363 -19.5019 -23.0388 -23.9084 -16.7845 -17.5408 -20.1707 -17.9443 -18.4931
-13.9777 -18.7015 -21.9667 -16.14 -24.1869 -18.6047 -15.5374 -14.017 -18.6782 -16.2262
-15.1331 -14.1701 -18.7209 -17.0738 -15.1396 -15.1859 -19.8673 -21.2215 -18.9735 -21.0088
-15.6327 -23.6676 -19.7406 -14.4384 -18.9031 -18.0059 -15.5841 -14.7505 -19.1613 -18.982
-16.4058 -20.1677 -18.2391 -24.3623 -17.1969 -23.1048 -16.376 -25.1445 -18.3212 -15.3466
-20.2755 -22.5117 -19.9664 -15.046 -19.4501 -21.824 -15.7589 -25.0494 -19.8451 -20.0127
-17.5167 -14.1379 -18.6844 -14.7863 -14.2144 -18.6763 -15.5874 -14.2954 -14.4185 -18.7412
-15.4257 -20.7938 -24.0337 -20.7834 -16.5692 -14.2372 -15.2631 -19.744 -21.1656 -18.813
-17.8904 -14.7112 -18.9253 -24.4152 -25.7029 -16.7667 -17.9839 -17.6498 -14.6398 -19.934
-22.8804 -15.9251 -26.19 -19.6914 -15.0274 -19.1577 -18.7663 -15.4664 -15.3603 -20.0717
-22.5338 -20.1432 -21.51 -15.4603 -25.5731 -21.2745 -15.2928 -19.3918 -19.911 -16.6491
-17.3525 -25.7567 -17.5017 -14.4039 -18.676 -15.354 -20.5005 -24.1036 -21.3268 -14.1528
-14.5251 -18.6805 -24.0876 -26.8561 -16.2318 -19.3365 -15.0782 -13.537 -15.4514 -19.6127
-21.131 -18.0842 -14.7818 -18.7683 -16.1918 -13.3458 -22.4288 -15.5225 -26.8338 -21.3554
-19.721 -15.0843 -18.957 -17.4402 -13.6218 -16.6037 -15.3824 -15.4688 -19.1647 -19.8583
-22.4915 -18.7351 -19.5943 -14.3488 -21.0894 -15.2919 -25.6731 -22.1543 -25.3348 -26.9237
-16.8266 -18.7325 -15.5879 -19.35 -20.0091 -15.4645 -23.4771 -15.6973 -27.5812 -20.9933
-15.3703 -20.1874 -23.9787 -20.9723 -14.7149 -18.6653 -13.5212 -15.8285 -14.8709 -15.6656
-18.6872 -19.5056 -21.8443 -15.2423 -26.9626 -21.2721 -22.4559 -14.4945 -16.8644 -12.9096
-15.1634 -18.7977 -15.75 -12.6406 -19.5614 -15.4566 -18.9895 -17.2283 -12.7496 -15.2181
-20.6401 -25.4353 -21.9838 -15.6038 -19.6727 -26.4243 -17.8401 -22.5566 -18.361 -15.3657
-15.713 -19.1827 -24.5654 -27.6704 -16.0847 -20.2274 -18.7805 -13.2889 -15.2754 -22.7138
-15.2788 -27.7476 -22.1266 -15.8443 -19.3304 -20.2346 -14.2104 -15.4285 -19.8978 -23.8524
-19.7455 -21.2286 -15.0764 -26.6411 -22.4246 -15.8421 -19.4263 -21.5538 -15.4227 -15.0295
-18.6492 -12.9758 -15.1784 -18.6936 -13.9651 -12.4534 -15.052 -19.4509 -15.4618 -18.8252
-25.5185 -27.1241 -16.7799 -19.1085 -15.3118 -12.2047 -23.6115 -15.4636 -27.8668 -21.2765
-15.0418 -15.7322 -19.0146 -15.2048 -20.2138 -25.0617 -16.9524 -20.8033 -12.1725 -15.7188
-19.5141 -22.7417 -16.7522 -15.9403 -19.1947 -21.9106 -15.0011 -27.4105 -22.1753 -18.7241
-12.4837 -15.0987 -16.0163 -19.3046 -20.3496 -13.1304 -15.2209 -15.4986 -19.6336 -23.799
-18.0017 -14.9951 -20.6397 -26.0575 -21.3482 -26.1324 -17.7098 -15.4038 -24.3933 -27.3112
-15.8434 -20.0876 -15.9631 -19.3408 -21.7332 -14.0555 -15.5156 -15.3312 -18.6309 -22.5999
-15.031 -27.5525 -21.3769 -13.1994 -19.3438 -15.4297 -18.6964 -14.2188 -12.6172 -15.6491
-18.843 -15.5294 -12.2809 -15.7899 -15.2376 -19.8169 -24.6899 -18.9985 -15.8525 -15.8789
-19.0195 -17.1169 -12.0534 -15.9813 -15.8021 -19.3502 -21.1326 -14.8388 -26.7272 -22.8424
-21.254 -15.1107 -16.061 -15.9811 -16.0312 -15.8837 -15.6789 -15.4983 -15.4219 -16.0377
-19.1741 -18.841 -12.0743 -24.9045 -26.2918 -16.3908 -18.5502 -14.9913 -20.0876 -25.3942
-19.6057 -16.0822 -15.5626 -19.2368 -19.3724 -23.1969 -15.1834 -27.0064 -23.6857 -20.3138
-20.4005 -16.1329 -12.3837 -21.6128 -14.7556 -26.8588 -20.6336 -16.0196 -19.2151 -21.7099
-12.9443 -15.5624 -18.6157 -13.8444 -19.1889 -15.6207 -15.2879 -18.6967 -19.4403 -24.292
-14.8734 -17.0072 -13.1254 -15.757 -18.8503 -14.7808 -20.4012 -25.8978 -16.0439 -19.7013
-12.6574 -15.858 -19.1598 -22.722 -13.6589 -15.9145 -19.0034 -25.0528 -16.9459 -17.5127
-12.2545 -23.6017 -26.0086 -15.4355 -18.9262 -16.0294 -19.1191 -19.1352 -12.0122 -22.0257
-14.7477 -26.3357 -19.799 -15.0238 -19.5695 -24.7279 -17.6228 -15.6175 -19.1079 -23.3972
-14.3981 -16.0634 -19.1325 -20.5264 -11.9888 -20.6876 -14.6095 -26.003 -19.3471 -16.0192
-19.0656 -21.6377 -12.1633 -15.3337 -19.0861 -23.7367 -24.8294 -15.6994 -17.2753 -23.78
-15.0886 -14.7803 -19.7155 -25.0657 -17.8729 -15.7601 -18.6239 -14.1964 -15.8121 -18.7173
-22.3143 -14.7997 -25.3907 -18.686 -15.1294 -13.4052 -18.9869 -15.8792 -18.8738 -16.1011
-12.8472 -15.8781 -18.9697 -22.4605 -12.5136 -15.935 -18.998 -20.9209 -14.4781 -25.5172
-18.7926 -17.4616 -12.4085 -16.0021 -15.0521 -19.072 -19.0931 -24.0106 -19.0826 -15.6735
-12.0532 -18.9209 -15.6416 -18.868 -14.5423 -19.825 -25.137 -22.9521 -17.801 -12.9576
-16.0331 -19.0487 -20.45 -11.8259 -23.5694 -15.8513 -22.4047 -24.296 -14.8632 -17.1874
-16.0068 -18.9554 -21.0718 -14.3864 -24.6121 -21.4867 -17.9537 -11.7422 -14.7803 -19.0872
-24.201 -16.0729 -15.3539 -18.7725 -23.1585 -13.4717 -16.0628 -18.6956 -14.4015 -16.0899
-18.7989 -14.3127 -19.8909 -24.6737 -17.5306 -15.1722 -13.5513 -16.093 -15.8818 -18.9519
-18.83 -22.1839 -15.9081 -12.8865 -11.8369 -16.0605 -19.0453 -17.0833 -12.4217 -18.7716
-15.0592 -18.6727 -23.271 -14.0549 -14.4901 -19.0405 -24.2012 -16.2745 -16.0616 -19.0847
-22.2546 -23.1242 -14.872 -15.7731 -18.5535 -12.0361 -15.645 -18.6824 -22.5334 -12.0911
-21.0828 -14.3091 -23.5704 -16.6998 -16.0735 -19.0356 -19.8166 -11.7694 -19.8982 -14.1065
-23.7788 -16.9366 -14.7577 -18.5392 -23.3513 -14.6042 -16.044 -15.348 -18.9205 -18.5146
-22.6169 -20.834 -11.6266 -12.5073 -14.1827 -18.9595 -23.7307 -16.2463 -16.3939 -18.8654
-14.4852 -16.387 -18.9635 -15.1622 -13.5828 -15.9132 -18.76 -21.8689 -14.7586 -21.5705
-11.6488 -16.3567 -19.0969 -20.9119 -22.4677 -14.2041 -15.4497 -15.6972 -12.8793 -18.5896
-15.0362 -18.3213 -22.6484 -13.0562 -16.2933 -14.4223 -19.1605 -18.3665 -23.226 -16.6192
-14.997 -12.4136 -19.8086 -13.9163 -22.745 -15.9585 -16.2432 -19.1721 -17.7836 -12.0481
-15.6602 -18.559 -21.9246 -11.8335 -13.887 -18.8349 -22.8427 -15.8477 -18.5029 -16.2221
-19.0996 -18.8179 -11.8056 -14.7082 -18.0883 -22.567 -13.6033 -15.3388 -14.0566 -18.3215
-18.1656 -22.6863 -21.9565 -15.0958 -12.1502 -16.1637 -18.9572 -19.6961 -11.6684 -20.5475
-21.275 -14.0321 -14.4991 -19.5909 -13.7156 -21.6658 -14.9441 -16.6366 -15.9974 -19.1214
-18.7551 -18.642 -13.6073 -21.8091 -20.3552 -15.1212 -14.3982 -11.6652 -16.6335 -19.2027
-14.9776 -13.5158 -14.3401 -17.8194 -22.2098 -13.9891 -16.6223 -15.0013 -19.3075 -18.0502
-21.8356 -15.3912 -12.8192 -12.537 -16.5785 -19.3461 -16.0908 -12.393 -13.6958 -17.9302
-21.7835 -14.8188 -15.7058 -18.4974 -20.7116 -11.7704 -16.5206 -19.3337 -16.9336 -12.0757
-18.2297 -20.005 -13.7757 -16.4677 -14.6508 -19.2365 -17.7401 -19.2285 -20.5193 -13.4832
-21.4706 -14.1162 -17.7243 -11.8328 -12.8985 -13.9341 -17.5241 -21.5388 -14.0783 -18.3657
-13.3282 -20.7439 -14.3401 -15.3494 -18.1968 -20.7493 -11.9425 -16.3615 -19.0613 -18.3873
-11.6697 -18.0883 -13.3499 -17.6499 -20.757 -14.2981 -14.2603 -17.3969 -20.8861 -13.1415
-16.1388 -18.8145 -18.829 -11.6096 -16.8623 -14.9824 -19.4333 -17.8623 -20.4751 -14.1232
-12.1364 -16.8834 -19.504 -14.6201 -13.3185 -16.9128 -13.5281 -19.5886 -17.2012 -20.6159
-14.9556 -12.6801 -13.8877 -16.9049 -19.6081 -18.7369 -19.3221 -13.21 -13.4455 -15.4866
-12.286 -15.7951 -18.5009 -17.9996 -13.0428 -19.6479 -19.0706 -13.6532 -11.6095 -16.8616
-19.5743 -16.0519 -11.9982 -14.6075 -17.4916 -13.0115 -17.3211 -19.7269 -19.9177 -13.7154
-12.2971 -13.8268 -17.0292 -20.1631 -13.1999 -16.7819 -19.45 -16.5836 -11.7578 -17.7994
-15.3951 -18.1399 -19.0832 -11.6601 -13.1356 -16.8555 -19.6194 -13.5399 -16.6211 -19.2391
-17.0319 -11.5792 -14.1955 -17.0902 -19.2785 -12.4279 -18.1416 -12.899 -17.5536 -12.749
-18.5384 -13.0636 -16.335 -14.9898 -13.3907 -18.9432 -17.7499 -16.6402 -19.3033 -18.7935
-17.311 -13.0963 -11.4758 -11.7445 -17.1468 -19.7981 -13.5961 -17.1953 -19.8675 -16.9457
-12.6858 -18.7026 -13.157 -14.0599 -12.9367 -17.2622 -19.9436 -14.3738 -12.4125 -17.4887
-17.2793 -19.9489 -14.7627 -12.0517 -15.9341 -18.57 -12.7561 -16.4897 -18.6549 -17.4306
-13.1096 -11.4173 -17.244 -13.741 -19.8932 -16.6664 -18.6217 -15.1395 -11.7804 -12.4883
-14.5814 -17.3312 -18.287 -11.8095 -17.1332 -12.9684 -19.7388 -16.2448 -18.4071 -15.4875
-12.8654 -11.5555 -15.4808 -18.1494 -17.3969 -11.4092 -17.3063 -17.0424 -17.4654 -12.4479
-12.5634 -16.9156 -19.4865 -16.5325 -12.3743 -17.6963 -12.6543 -15.7781 -11.3836 -14.1437
-16.8856 -17.7357 -11.8835 -13.284 -16.2268 -17.9116 -12.4228 -12.4021 -16.1078 -17.7283
-12.6624 -15.0231 -17.7082 -17.1756 -11.4299 -16.5658 -19.128 -15.9612 -11.268 -17.5091
-20.2233 -12.9761 -17.5753 -12.5608 -20.2939 -15.8502 -17.5567 -13.3688 -12.4892 -12.5381
-17.6604 -20.3654 -13.6652 -12.0744 -17.6833 -16.1062 -20.3603 -18.6865 -16.0289 -13.9614
-11.7488 -11.1925 -13.6691 -16.4152 -17.1889 -11.9179 -14.5681 -17.2452 -16.8138 -11.44
-17.6379 -20.2806 -16.4765 -12.1435 -14.2352 -11.4944 -12.8409 -15.7905 -17.1874 -12.2496
-16.0894 -12.0787 -16.7439 -12.2171 -12.0761 -15.7171 -16.8403 -12.2445 -17.4825 -20.0853
-14.488 -11.2846 -15.593 -18.2091 -15.9863 -11.1561 -16.7656 -12.1839 -15.4614 -16.7549
-12.1852 -17.2015 -14.0998 -19.7746 -16.76 -16.3964 -14.6893 -11.124 -11.4581 -13.1937
-15.9276 -16.6296 -11.8477 -16.7209 -15.0738 -17.7184 -15.8198 -11.132 -12.4127 -15.3691
-16.4879 -12.0035 -16.787 -19.3387 -14.8181 -11.0064 -17.8592 -20.7 -15.6155 -15.8744
-11.7965 -11.8411 -12.3813 -17.9458 -20.7719 -12.6848 -12.0268 -18.0541 -13.6076 -20.839
-16.2488 -11.7817 -15.3181 -16.0117 -11.8725 -15.9666 -12.9433 -11.7076 -11.4462 -16.2689
-18.8282 -14.8636 -10.9189 -18.0744 -14.5646 -12.7337 -20.8203 -17.2082 -15.4517 -16.0634
-13.1924 -15.5594 -11.4347 -11.7084 -11.102 -11.8434 -15.083 -15.9953 -11.8448 -17.9982
-20.7152 -13.4114 -11.2088 -15.698 -12.0187 -18.2994 -14.9667 -15.8189 -14.8256 -11.7312
-10.8624 -17.7845 -20.4699 -13.6058 -11.0179 -13.114 -15.7143 -15.5232 -11.3693 -14.0608
-16.6793 -15.2471 -11.0782 -17.4344 -20.0836 -13.7551 -10.8677 -16.1729 -12.2896 -15.0047
-15.4997 -11.5212 -15.1127 -11.5227 -15.1201 -17.7581 -14.9048 -11.5132 -15.2575 -11.5428
-14.7003 -10.8208 -16.953 -19.5703 -11.5458 -14.7087 -15.2862 -13.8497 -11.532 -10.7501
-13.5536 -16.1287 -14.9092 -11.0348 -18.0705 -11.6691 -21.1858 -14.5854 -15.1805 -11.8387
-11.4546 -18.1994 -12.6379 -21.252 -15.1958 -15.0662 -12.0783 -11.5728 -11.2487 -18.3594
-21.3164 -12.2957 -11.3233 -16.3789 -14.5595 -19.0005 -17.1953 -13.8784 -14.5057 -10.6564
-10.7769 -18.3674 -21.2868 -12.4988 -11.0978 -11.8821 -14.5854 -14.9461 -11.307 -15.763
-18.2395 -21.1523 -12.6759 -10.9022 -15.7601 -18.4196 -13.8437 -10.5846 -17.966 -13.0485
-20.8567 -15.5531 -14.471 -14.5905 -11.2586 -11.2543 -12.8289 -14.552 -10.7284 -10.9535
-14.021 -16.6168 -14.2623 -10.7297 -11.2835 -14.3306 -14.6373 -11.2449 -12.1823 -14.72
-14.6019 -11.0932 -17.5532 -20.3959 -12.9404 -10.5854 -11.3653 -14.2189 -14.5795 -11.1903
-15.5136 -15.1384 -17.82 -13.7432 -10.5217 -17.0159 -11.5255 -19.8144 -14.19 -14.4095
-13.0096 -11.0777 -10.4701 -13.4984 -16.0195 -13.9881 -10.6664 -12.558 -14.9916 -14.176
-10.8419 -18.1803 -21.5063 -11.341 -18.3163 -14.5408 -21.5819 -17.1935 -11.5334 -13.5897
-11.134 -10.4585 -16.403 -19.1889 -13.0266 -10.3728 -18.4768 -11.7645 -21.6784 -14.2814
-14.1392 -11.7121 -10.9359 -10.9128 -14.0144 -11.0086 -18.4484 -21.6622 -11.0398 -13.9361
-14.0543 -10.9854 -11.8759 -10.7506 -11.1019 -13.8568 -14.022 -10.9411 -18.2631 -21.5052
-12.0161 -10.5842 -12.9888 -15.4006 -13.6903 -10.5796 -15.7572 -18.546 -12.9934 -10.2909
-13.9804 -12.0877 -16.5539 -14.4829 -13.7876 -13.3928 -10.7029 -10.3931 -17.9386 -11.2147
-21.1687 -13.8164 -13.8987 -12.1351 -10.8502 -10.4305 -17.4881 -20.6512 -12.2187 -10.2971
-15.1149 -11.3988 -17.873 -13.8707 -13.6849 -12.9089 -10.716 -10.2156 -14.8269 -12.4901
-14.8018 -13.3737 -10.4701 -16.9306 -13.4489 -20.0149 -15.8986 -12.266 -13.165 -10.1844
-10.3185 -10.799 -13.5173 -13.5371 -10.756 -14.6651 -10.859 -13.4814 -13.5113 -10.7076
-11.6587 -14.0232 -13.3959 -10.5429 -14.503 -17.1696 -12.7803 -10.1422 -18.1984 -21.5566
-10.8693 -18.265 -16.3128 -10.9458 -21.6712 -19.3361 -13.4534 -13.4184 -11.0248 -12.2719
-10.6309 -10.7056 -10.0843 -18.3258 -21.84 -11.1702 -10.5468 -18.2392 -21.8604 -11.3024
-10.3929 -12.9336 -11.0793 -15.2342 -13.4818 -13.2472 -12.9147 -10.5163 -10.229 -18.0093
-12.0026 -21.6917 -14.2652 -11.4135 -13.0444 -10.2507 -10.3398 -15.6697 -18.6265 -12.2383
-9.99495 -13.9348 -16.457 -12.6151 -10.0677 -17.6638 -21.3227 -11.5035 -10.1168 -11.2863
-13.5958 -13.0069 -10.3681 -13.078 -10.5527 -17.2169 -20.7728 -10.6175 -13.0828 -13.0472
-10.4944 -11.5649 -9.99467 -15.0319 -17.8678 -12.1643 -9.9117 -12.4229 -10.6975 -14.6113
-13.0824 -12.9691 -10.4189 -12.6458 -10.1211 -14.1621 -13.398 -15.7431 -12.4232 -9.98429
-16.6799 -11.5591 -20.1048 -13.784 -12.7089 -11.596 -9.8859 -10.1925 -10.8017 -13.1052
-12.8298 -10.319 -14.4237 -17.0797 -12.054 -9.82991 -16.0878 -19.3851 -11.5931 -9.78603
-17.9233 -21.4103 -10.4184 -17.9353 -10.9588 -21.5623 -13.1888 -12.6274 -10.5457 -10.287
-10.1888 -17.9039 -21.7833 -10.6643 -10.1578 -12.8678 -15.0504 -12.2104 -9.89098 -11.9171
-14.0564 -12.3628 -9.99589 -17.7538 -21.8154 -10.7692 -10.0288 -17.5027 -15.4729 -13.8527
-21.6283 -18.6164 -16.3017 -10.371 -12.667 -12.6255 -10.2984 -10.8566 -11.5591 -11.9127
-9.90727 -9.69387 -9.74883 -11.178 -13.3377 -12.3722 -10.0337 -10.4503 -12.6947 -12.5521
-10.2195 -17.1856 -21.2466 -10.9256 -9.79024 -10.546 -12.7284 -12.4323 -10.124 -14.8585
-17.7756 -11.4927 -9.60734 -16.7853 -12.3335 -20.7062 -14.4195 -10.9699 -11.9795 -9.67931
-9.78452 -13.5976 -10.6695 -12.7952 -12.261 -10.0087 -13.2992 -11.4598 -15.5542 -13.554
-12.0723 -11.7486 -9.85714 -9.66128 -13.54 -16.2919 -20.0402 -10.9885 -9.57618 -14.2604
-10.8425 -16.9139 -12.9145 -12.0401 -11.3973 -9.8696 -9.52137 -10.1165 -12.2412 -15.7405
-19.2994 -10.9793 -9.47862 -10.201 -12.295 -12.1662 -10.0308 -17.3449 -11.8145 -21.1205
-13.8529 -9.9882 -11.7343 -9.6634 -17.3497 -12.7428 -21.2551 -14.8552 -10.0922 -9.88097
-11.5648 -9.56509 -17.2931 -10.2918 -21.4433 -12.3445 -12.0574 -9.937 -10.1886 -9.77344
-17.1226 -11.0691 -21.4489 -13.0892 -10.2709 -11.7789 -9.66506 -9.70947 -13.6832 -16.1012
-11.2756 -9.43525 -15.1669 -10.404 -18.4886 -12.4092 -11.9087 -9.82815 -10.9456 -9.38842
-16.8857 -21.2538 -10.3381 -9.56074 -16.6136 -20.8992 -10.3917 -9.45789 -10.5422 -12.508
-11.7168 -9.70301 -12.1931 -14.2207 -11.3645 -9.45958 -14.5834 -11.3526 -17.5887 -13.3327
-11.4814 -10.8854 -9.53217 -9.30225 -16.2692 -20.4104 -10.4237 -9.35849 -13.112 -15.3478
-11.1328 -9.34523 -9.25812 -9.25206 -9.25353 -9.94388 -11.8879 -9.85187 -11.8087 -10.7239
-12.653 -11.487 -9.55735 -9.24607 -9.24347 -12.9286 -15.8295 -10.0369 -19.7888 -11.9547
-11.7054 -9.75737 -10.433 -9.26267 -9.24635 -9.24183 -13.9987 -16.689 -10.8013 -9.215
-10.1417 -12.0242 -11.5716 -9.65237 -9.20342 -11.6799 -13.6442 -11.1514 -9.34306 -15.3255
-12.5477 -19.0558 -14.6488 -10.4205 -10.9726 -9.16973 -9.24871 -9.21423 -10.9544 -12.8513
-11.2245 -9.39378 -16.7081 -10.2639 -20.7796 -12.1137 -11.4032 -9.57943 -9.53576 -16.7056
-20.836 -9.66315 -9.49117 -16.647 -20.9116 -9.74045 -9.39989 -13.4247 -15.8704 -10.6948
-9.12591 -16.5006 -20.8757 -9.80494 -9.30829 -9.14301 -9.19511 -14.7951 -18.2203 -10.3871
-9.08369 -16.2979 -10.413 -20.6925 -12.2366 -11.1999 -9.85623 -9.21771 -9.40241 -9.18731
-12.5652 -12.0141 -14.0092 -10.7979 -9.14522 -16.0521 -11.226 -20.3787 -13.1126 -9.68079
-11.4757 -9.89546 -10.9303 -9.12698 -9.2192 -9.17169 -9.77751 -11.5599 -9.5837 -11.3748
-14.2449 -17.3008 -10.3321 -9.00014 -12.8616 -9.87913 -15.1173 -11.639 -11.2506 -9.48212
-10.5696 -9.03562 -15.7402 -10.5994 -19.9358 -12.4031 -10.9665 -9.91724 -9.03888 -9.25181
-9.05321 -9.99188 -11.7263 -11.0996 -9.37046 -9.13225 -15.3513 -19.3731 -9.92139 -8.95183
-12.3422 -13.6844 -16.4103 -10.2566 -8.91342 -11.5227 -13.4235 -10.6114 -9.03394 -10.122
-11.836 -10.919 -9.24602 -12.3179 -10.8255 -12.6186 -14.417 -10.7046 -10.4293 -9.08974
-8.94202 -9.10394 -14.8935 -18.6655 -9.9076 -8.8658 -8.92786 -16.1046 -20.2742 -9.19008
-16.0927 -20.2833 -9.25729 -9.11739 -9.09039 -16.033 -13.1338 -10.2771 -20.286 -11.9779
-15.6038 -9.31889 -10.7105 -9.04059 -10.1618 -9.10762 -8.82418 -9.51577 -9.41606 -11.1633
-11.0638 -15.9136 -9.61638 -20.2289 -11.2533 -10.946 -9.31554 -9.36979 -8.96279 -14.4009
-17.8288 -9.87487 -8.78374 -9.0703 -15.735 -20.0637 -9.40879 -8.8829 -11.0783 -9.72283
-12.8826 -11.3435 -10.8075 -9.20812 -10.4167 -8.91646 -11.8122 -13.7754 -10.2758 -8.84154
-15.5069 -19.7816 -9.4367 -8.80206 -10.4635 -12.1579 -10.476 -8.9565 -13.8846 -12.5964
-9.83891 -11.4462 -14.8544 -16.94 -10.645 -9.09012 -9.82409 -10.0515 -8.70177 -8.73557
-9.02283 -15.214 -19.3615 -9.45076 -8.72337 -8.76715 -9.97516 -11.5713 -10.4585 -8.96038