# vtk DataFile Version 2.0
sampleSurface
ASCII
DATASET POLYDATA
POINTS 4972 float
4 2.90752e-06 0 4 -0.0312483 0 4 2.85017e-06 0.0312519 4 0.031254
0 4 -0.0312483 0.0312519 4 0.031254 0.0312519 4 -0.0624994 0
4 2.75539e-06 0.0625039 4 0.062505 0 4 -0.0624995 0.0312519 4
-0.0312484 0.0625039 4 0.0312539 0.0625038 4 0.062505 0.0312519 4 -0.0624996
0.0625038 4 0.0625049 0.0625038 4 -0.0937506 0 4 2.62364e-06 0.0937558
4 0.093756 0 4 -0.0937506 0.0312519 4 -0.0312486 0.0937557 4
0.0937559 0.0312518 4 0.0312537 0.0937557 4 -0.0937507 0.0625037 4 -0.0624998
0.0937557 4 0.0937558 0.0625036 4 0.0625048 0.0937556 4 -0.125002 0
4 0.125007 0 4 2.45461e-06 0.125008 4 -0.125002 0.0312518 4
0.125007 0.0312518 4 -0.0312487 0.125008 4 0.0312536 0.125008 4 -0.0937509
0.0937555 4 0.0937557 0.0937554 4 -0.125002 0.0625035 4 -0.0624999 0.125007
4 0.125007 0.0625035 4 0.0625046 0.125007 4 -0.156253 0 4
-0.125002 0.0937553 4 -0.0937511 0.125007 4 0.156257 0 4 0.125006
0.0937552 4 0.0937555 0.125007 4 2.2494e-06 0.156259 4 -0.156253 0.0312517
4 0.156257 0.0312517 4 -0.031249 0.156259 4 0.0312534 0.156259 4
-0.156253 0.0625034 4 0.156257 0.0625033 4 -0.0625002 0.156259 4 0.0625044
0.156259 4 -0.125002 0.125007 4 0.125006 0.125007 4 -0.156253 0.093755
4 -0.0937514 0.156259 4 0.156257 0.0937549 4 0.0937553 0.156259 4
-0.187503 0 4 0.187508 0 4 2.0071e-06 0.187511 4 -0.187503
0.0312516 4 0.187508 0.0312516 4 -0.0312492 0.187511 4 0.0312532 0.187511
4 -0.187504 0.0625032 4 0.187508 0.0625031 4 -0.0625005 0.187511 4
0.0625042 0.187511 4 -0.156253 0.125007 4 -0.125002 0.156259 4 0.156257
0.125007 4 0.125006 0.156259 4 -0.187504 0.0937547 4 0.187507 0.0937546
4 -0.0937517 0.187511 4 0.0937551 0.187511 4 -0.218754 0 4
0.218758 0 4 1.73283e-06 0.218763 4 -0.218754 0.0312515 4 0.218758
0.0312515 4 -0.156253 0.156258 4 0.156257 0.156258 4 -0.0312495 0.218763
4 0.0312529 0.218763 4 -0.187504 0.125006 4 0.187507 0.125006 4
-0.125003 0.18751 4 0.125006 0.18751 4 -0.218754 0.0625029 4 0.218758
0.0625029 4 -0.0625008 0.218763 4 0.0625039 0.218763 4 -0.218754 0.0937544
4 0.218758 0.0937543 4 -0.093752 0.218762 4 0.0937549 0.218762 4
-0.187504 0.156258 4 -0.156254 0.18751 4 0.187507 0.156258 4 0.156257
0.18751 4 -0.250004 0 4 0.250008 0 4 1.43381e-06 0.250015
4 -0.250005 0.0312514 4 -0.218755 0.125006 4 0.250008 0.0312513 4
0.218758 0.125006 4 -0.125003 0.218762 4 0.125006 0.218762 4 -0.0312498
0.250015 4 0.0312526 0.250014 4 -0.250005 0.0625027 4 0.250008 0.0625027
4 -0.0625011 0.250014 4 0.0625037 0.250014 4 -0.187505 0.187509 4
0.187507 0.187509 4 -0.250005 0.093754 4 0.250008 0.093754 4 -0.0937523
0.250014 4 0.0937546 0.250014 4 -0.218755 0.156257 4 0.218757 0.156257
4 -0.156254 0.218761 4 0.156256 0.218761 4 -0.250005 0.125005 4
0.250008 0.125005 4 -0.125003 0.250014 4 0.125005 0.250013 4 -0.281255
0 4 0.281258 0 4 1.11352e-06 0.281266 4 -0.281255 0.0312512
4 0.281258 0.0312512 4 -0.0312501 0.281266 4 0.0312523 0.281266 4
-0.281255 0.0625025 4 0.281258 0.0625024 4 -0.218755 0.187509 4 0.218757
0.187508 4 -0.187505 0.218761 4 0.187507 0.21876 4 -0.0625014 0.281266
4 0.0625033 0.281266 4 0.0815282 0.281265 4 0.0625033 0.286625 4
0.0937543 0.278097 4 -0.250005 0.156257 4 0.250008 0.156256 4 -0.156254
0.250013 4 0.156256 0.250012 4 -0.281255 0.0937537 4 0.281258 0.0937536
4 -0.0937526 0.281266 4 0.0937542 0.281265 4 0.0312521 0.295659 4
0.125005 0.27035 4 8.6292e-07 0.304749 4 0.156256 0.262911 4 -0.281255
0.125005 4 0.281258 0.125005 4 0.125005 0.281264 4 -0.125004 0.281265
4 -0.218756 0.21876 4 0.218757 0.21876 4 -0.312505 0 4
0.312508 0 4 -0.250006 0.187508 4 0.250007 0.187508 4 -0.187505
0.250012 4 0.187506 0.250012 4 7.80021e-07 0.312517 4 -0.0269853 0.312517
4 -0.312505 0.0312511 4 0.312508 0.0312511 4 0.0312519 0.312517 4
-0.0312505 0.312517 4 -0.0312505 0.313916 4 0.187506 0.255809 4 -0.312505
0.0625022 4 0.312508 0.0625022 4 0.062503 0.312517 4 -0.0625017 0.312517
4 -0.281256 0.156256 4 0.281258 0.156256 4 0.156256 0.281264 4
-0.156255 0.281264 4 -0.312505 0.0937533 4 0.312508 0.0937532 4 0.0937539
0.312516 4 -0.093753 0.312517 4 0.214502 0.250011 4 -0.0625018 0.323793
4 0.218757 0.249112 4 -0.250006 0.218759 4 0.250007 0.218759 4
-0.218756 0.250011 4 0.218757 0.250011 4 -0.312505 0.125004 4 0.312508
0.125004 4 0.125005 0.312515 4 -0.125004 0.312516 4 -0.281256 0.187507
4 0.281257 0.187507 4 0.187506 0.281263 4 -0.187506 0.281263 4
-0.343755 0 4 0.343758 0 4 4.42059e-07 0.343769 4 -0.343755
0.031251 4 0.343758 0.031251 4 0.0312516 0.343768 4 -0.0312508 0.343769
4 -0.0937532 0.33293 4 0.250007 0.243101 4 -0.343755 0.062502 4
-0.312506 0.156255 4 0.343758 0.0625019 4 0.312507 0.156255 4 0.156255
0.312515 4 -0.156255 0.312515 4 0.0625026 0.343768 4 -0.062502 0.343768
4 0.250007 0.25001 4 -0.250007 0.25001 4 -0.343755 0.0937529 4
0.343758 0.0937529 4 -0.281256 0.218758 4 0.281257 0.218758 4 0.218756
0.281262 4 -0.218756 0.281262 4 0.0937535 0.343767 4 -0.0937533 0.343768
4 -0.125004 0.341229 4 -0.312506 0.187506 4 0.312507 0.187506 4
0.187506 0.312514 4 -0.187506 0.312515 4 -0.343755 0.125004 4 0.343757
0.125004 4 0.125004 0.343766 4 -0.125004 0.343767 4 0.281257 0.237336
4 -0.135979 0.343767 4 -0.375004 0 4 0.375008 0 4
1.09444e-07 0.375019 4 -0.375005 0.0312509 4 0.375007 0.0312509 4 0.281257
0.250009 4 -0.281257 0.250009 4 0.250006 0.281261 4 -0.250007 0.281261
4 0.0312512 0.375019 4 -0.0312511 0.375019 4 -0.343756 0.156255 4
0.343757 0.156255 4 0.156255 0.343765 4 -0.156256 0.343766 4 -0.375005
0.0625017 4 0.375007 0.0625017 4 0.0625022 0.375019 4 -0.0625023 0.375019
4 -0.312506 0.218758 4 0.312507 0.218757 4 0.218756 0.312513 4
-0.218757 0.312514 4 -0.156256 0.349389 4 -0.375005 0.0937526 4 0.375007
0.0937525 4 0.0937531 0.375018 4 -0.0937536 0.375019 4 0.312507 0.231749
4 -0.343756 0.187506 4 0.343757 0.187506 4 0.187505 0.343764 4
-0.187506 0.343765 4 -0.375005 0.125003 4 0.375007 0.125003 4 0.125004
0.375017 4 -0.125005 0.375018 4 0.281256 0.28126 4 -0.281257 0.28126
4 0.312507 0.250008 4 -0.312507 0.250008 4 0.250006 0.312512 4
-0.250007 0.312512 4 -0.187507 0.356711 4 -0.406254 0 4 -0.375005
0.156254 4 0.406257 0 4 0.375007 0.156254 4 0.156254 0.375016
4 -0.156256 0.375017 4 -2.07883e-07 0.40627 4 -0.406254 0.0312508 4
0.406257 0.0312507 4 -0.343756 0.218757 4 0.343757 0.218756 4 0.218756
0.343763 4 -0.218757 0.343764 4 0.0312509 0.40627 4 -0.0312514 0.40627
4 -0.406254 0.0625015 4 0.406257 0.0625015 4 0.0625019 0.406269 4
-0.0625026 0.40627 4 0.343757 0.226278 4 -0.406254 0.0937522 4 0.406257
0.0937522 4 0.0937527 0.406268 4 -0.0937538 0.406269 4 -0.375006 0.187505
4 0.375007 0.187505 4 0.187505 0.375015 4 -0.187507 0.375016 4
0.312506 0.281259 4 -0.312507 0.281259 4 0.281256 0.31251 4 -0.281258
0.312511 4 -0.218757 0.362686 4 -0.406255 0.125003 4 0.406257 0.125003
4 0.343757 0.250007 4 -0.343757 0.250008 4 0.250006 0.343762 4
-0.250008 0.343763 4 0.125003 0.406267 4 -0.125005 0.406269 4 -0.375006
0.218756 4 0.375006 0.218756 4 0.218755 0.375014 4 -0.218757 0.375015
4 0.375006 0.220884 4 -0.406255 0.156254 4 0.406257 0.156254 4
0.156254 0.406266 4 -0.156256 0.406268 4 -0.437504 0 4 0.437507
0 4 -4.97918e-07 0.43752 4 -0.437504 0.0312506 4 0.437507 0.0312506
4 0.0312506 0.43752 4 -0.0312516 0.43752 4 -0.437504 0.0625013 4
0.437506 0.0625013 4 0.312506 0.312509 4 -0.312508 0.31251 4 0.0625015
0.437519 4 -0.0625028 0.43752 4 0.343756 0.281258 4 -0.343757 0.281258
4 0.281256 0.343761 4 -0.281258 0.343762 4 -0.250008 0.367245 4
0.388542 0.218755 4 -0.437504 0.0937519 4 -0.406255 0.187504 4 0.437506
0.0937519 4 0.406256 0.187504 4 0.187504 0.406265 4 -0.187507 0.406267
4 0.0937523 0.437518 4 -0.093754 0.43752 4 0.375006 0.250006 4
-0.375006 0.250007 4 0.250005 0.375013 4 -0.250008 0.375014 4 -0.437504
0.125003 4 0.437506 0.125003 4 0.125003 0.437517 4 -0.125005 0.437519
4 0.406256 0.215628 4 -0.406256 0.218755 4 0.406256 0.218755 4
0.218755 0.406264 4 -0.218758 0.406266 4 -0.437504 0.156253 4 0.437506
0.156253 4 0.343756 0.312508 4 0.312506 0.34376 4 -0.343757 0.312509
4 -0.312508 0.343761 4 0.156253 0.437516 4 -0.156256 0.437518 4
-0.281258 0.370302 4 -0.468753 0 4 0.468756 0 4 0.375006
0.281257 4 -0.375007 0.281257 4 0.281255 0.375011 4 -0.281258 0.375013
4 -7.52289e-07 0.46877 4 -0.468753 0.0312506 4 0.468756 0.0312505 4
0.0312503 0.46877 4 -0.0312518 0.46877 4 -0.468753 0.0625011 4 0.468756
0.0625011 4 0.0625012 0.468769 4 -0.062503 0.46877 4 -0.437505 0.187504
4 0.437506 0.187504 4 0.187504 0.437515 4 -0.187507 0.437517 4
0.406256 0.250005 4 -0.406256 0.250006 4 0.250005 0.406263 4 -0.250008
0.406265 4 -0.468753 0.0937516 4 0.468756 0.0937516 4 0.0937519 0.468768
4 -0.0937541 0.468769 4 -0.468753 0.125002 4 0.468756 0.125002 4
0.125003 0.468767 4 -0.125005 0.468769 4 0.437506 0.210501 4 -0.312508
0.371724 4 0.343755 0.343759 4 -0.343758 0.34376 4 0.375006 0.312507
4 -0.375007 0.312508 4 0.312505 0.37501 4 -0.312508 0.375012 4
-0.437505 0.218754 4 0.437506 0.218754 4 0.218754 0.437514 4 -0.218758
0.437516 4 -0.468754 0.156253 4 0.468756 0.156253 4 0.406256 0.281256
4 -0.406256 0.281257 4 0.281255 0.406262 4 -0.281258 0.406263 4
0.156253 0.468766 4 -0.156256 0.468768 4 -0.500002 0 4 0.500006
0 4 -9.63934e-07 0.50002 4 -0.500002 0.0312505 4 0.500006 0.0312505
4 0.03125 0.500019 4 -0.031252 0.50002 4 -0.500003 0.0625009 4
0.500006 0.0625009 4 -0.437505 0.250005 4 0.437506 0.250005 4 0.250004
0.437513 4 -0.250008 0.437515 4 0.0625008 0.500019 4 -0.0625031 0.500019
4 -0.468754 0.187503 4 0.468756 0.187503 4 0.187503 0.468765 4
-0.187507 0.468767 4 -0.343758 0.371295 4 -0.500003 0.0937514 4 0.500005
0.0937514 4 0.375005 0.343758 4 0.343755 0.375009 4 -0.375007 0.343759
4 -0.343758 0.37501 4 0.0937516 0.500018 4 -0.0937542 0.500019 4
0.468755 0.205624 4 0.406255 0.312506 4 -0.406257 0.312507 4 0.312505
0.40626 4 -0.312508 0.406262 4 -0.500003 0.125002 4 0.500005 0.125002
4 0.125002 0.500017 4 -0.125005 0.500019 4 -0.468754 0.218754 4
0.468755 0.218754 4 0.218754 0.468764 4 -0.218758 0.468766 4 0.437505
[...]
POINT_DATA 4972
FIELD attributes 1
U 3 4972 float
20 0 0 20 0 0 7.75861 0.724502 0.0683236 20 0
0 7.45372 0.635706 0.041522 8.10429 0.814151 0.103623 20 0 0
3.04955 1.00076 0.0678675 20 0 0 7.40035 0.547033 0.0257392 3.05487
0.976508 0.0258249 3.102 1.00145 0.117728 8.20084 0.864898 0.125817 3.12849 0.944514
-0.00730485 3.18974 0.964642 0.171216 20 0 0 1.18439 0.927394 0.0955615
20 0 0 7.66886 0.442021 0.0229104 1.31901 1.00025 0.04513 8.00541
0.833521 0.129849 1.12707 0.831602 0.166838 3.26009 0.92122 -0.0289169 1.51219 1.06043
0.0197732 3.30823 0.874447 0.225859 1.16672 0.713328 0.251269 20 0 0
20 0 0 0.137078 0.731484 0.19187 8.05215 0.325377 0.0209765 7.79746
0.725365 0.136348 0.352437 0.920069 0.126275 0.0252928 0.529613 0.274872 1.73173 1.12547
0.01768 1.33223 0.573584 0.341746 3.396 0.915311 -0.0401474 0.633163 1.08665 0.0931504
3.50744 0.727025 0.283359 0.0472293 0.332632 0.364789 20 0 0 1.93216
1.20608 0.0277336 0.929838 1.23754 0.0940247 20 0 0 1.64891 0.410266
0.434571 0.236448 0.15314 0.460974 -0.549364 0.491107 0.385722 8.20176 0.22483 0.00434727
7.75027 0.568391 0.150162 -0.277924 0.781033 0.307054 -0.6874 0.205498 0.459705 3.48228
0.931502 -0.0439003 3.82244 0.535335 0.333568 0.0723273 1.04862 0.253495 -0.665476 -0.0452186
0.524102 1.19611 1.37809 0.108863 0.60928 -0.0115868 0.56581 2.08082 1.29946 0.038099
0.43023 1.27742 0.23708 2.09934 0.226481 0.517564 -0.464821 -0.242817 0.600641 20
0 0 20 0 0 -1.01797 0.292798 0.637278 8.05685 0.150128
-0.0100454 7.6073 0.384188 0.145907 -0.722238 0.64096 0.565197 -1.15097 -0.0237087 0.6721
3.51175 0.96194 -0.0376598 4.14539 0.320677 0.345578 -0.322406 0.985733 0.486436 -1.112
-0.282895 0.685096 1.40669 1.50213 0.114724 0.751714 1.45938 0.228316 1.12069 -0.169077
0.668719 -0.0810405 -0.392086 0.709586 2.17148 1.38951 0.0433269 2.56963 0.0350869 0.559413
0.0896617 1.27909 0.423289 -0.90968 -0.475023 0.728587 20 0 0 20
0 0 -1.33319 0.191677 0.898386 7.68199 0.11385 -0.0122129 7.12574 0.205456
0.101339 1.03302 1.58957 0.194246 0.43372 -0.50884 0.838391 -1.04043 0.547966 0.861302
-1.44345 -0.112745 0.87329 1.56771 1.5967 0.0991167 1.62923 -0.316637 0.741998 0.465831
1.48812 0.354239 -0.557811 -0.608715 0.844268 3.47843 0.989114 -0.0250166 4.24208 0.116533
0.290557 -0.621598 0.924796 0.77103 -1.37643 -0.35376 0.827888 2.20898 1.4548 0.0392432
2.82938 -0.141599 0.527351 -0.174339 1.25677 0.648289 -1.16238 -0.532701 0.835874 1.29604
1.66547 0.125514 0.824858 1.6137 0.253038 0.923195 -0.603933 0.951784 -0.10079 -0.698206
1.01998 20 0 0 20 0 0 -1.54347 0.17839 1.14349
7.12747 0.121761 -0.0112781 1.70693 1.6466 0.0558496 6.44446 0.102244 0.019913 1.89814
-0.444579 0.760034 0.255322 1.48753 0.496512 -0.838061 -0.661501 0.952311 -1.27026 0.51141
1.1566 -1.62682 -0.100434 1.05726 3.38381 1.00572 -0.0118195 3.93859 -0.043253 0.173711
-0.863728 0.877062 1.07369 -1.52661 -0.32376 0.961332 1.20312 1.67275 0.121484 0.325832
-0.760143 1.19739 2.2077 1.48323 0.0246257 2.66771 -0.292099 0.435044 -0.408971 1.21487
0.902167 -1.28309 -0.497776 0.937929 1.57304 1.68847 0.0248472 1.1436 -0.679272 1.02647
0.699751 1.61389 0.317624 -0.453571 -0.750626 1.17407 1.85528 1.64384 -0.0171848 1.72513
-0.54626 0.738877 0.0687732 1.4616 0.669822 -0.951571 -0.634308 1.04528 20 0
0 20 0 0 -1.68244 0.209784 1.37042 6.56106 0.162448 -0.00325991
5.87728 0.0797594 -0.0577661 -1.44001 0.508339 1.42934 -1.73453 -0.0465109 1.2355 3.2787
1.01726 0.0105389 3.38812 -0.180258 0.0675534 1.6223 1.68201 -0.0286016 0.502829 -0.805518
1.32664 1.20285 1.66692 0.12814 -0.108919 -0.813266 1.42694 -1.06763 0.835723 1.36491
-1.59431 -0.260812 1.10212 -1.41934 -0.36979 1.07247 -1.59072 -0.251961 1.12896 -1.30449
-0.445697 1.04171 1.89131 1.66277 -0.103363 0.936603 -0.729774 1.06995 0.611298 1.60065
0.416714 -0.598719 -0.741887 1.28878 2.21016 1.46269 0.00397288 2.15216 -0.419749 0.375309
-0.627493 1.15236 1.17086 -1.3069 -0.439823 1.05341 -1.74829 -0.0247543 1.31914 -0.944323
-0.607822 1.11102 -1.73912 0.230764 1.53106 -0.58805 -0.736907 1.33105 2.04681 1.58076
-0.113061 1.18674 -0.607917 0.746206 -0.940434 -0.593607 1.1463 -0.110901 1.40696 0.885152
1.77144 1.67333 -0.058014 0.0470598 -0.864194 1.61186 20 0 0 20
0 0 2.09194 1.65381 -0.192813 0.338163 -0.838012 1.39477 1.25904 1.65929
0.178115 -0.306548 -0.830662 1.59627 -1.75787 0.237705 1.58421 -1.5859 0.465041 1.66111
6.24161 0.241633 0.0297939 5.60208 0.0724224 -0.0560921 -1.76441 0.000728169 1.4171 -1.55872
0.500971 1.67326 -1.56032 0.499045 1.68295 -0.301054 -0.835965 1.62004 3.20454 1.01767
0.0542208 2.95551 -0.282184 0.0815819 -1.57339 -0.209204 1.2586 -1.2281 0.783167 1.62699
2.2663 1.59287 -0.250678 0.472331 -0.750352 1.10431 -0.572869 -0.729821 1.3912 0.538789
1.56882 0.576054 2.26561 1.37318 -0.0220097 1.60173 -0.474525 0.432026 -1.2354 -0.397159
1.19075 -0.810703 1.06638 1.43628 -0.170041 -0.904116 1.80088 -1.25855 0.753083 1.71049
-0.142902 -0.91421 1.82676 2.39168 1.64871 -0.243865 -0.00934722 -0.915863 1.6794 2.0009
1.66804 -0.0360179 -0.148529 -0.915692 1.83313 2.3118 1.45312 -0.221243 0.667764 -0.609358
0.810351 -0.824727 -0.570633 1.26873 -0.269856 1.32006 1.13838 2.61594 1.59515 -0.367968
0.065091 -0.865419 1.40161 -0.276928 -0.85925 1.72442 1.3549 1.64393 0.298736 20
0 0 20 0 0 -1.73138 0.228207 1.78318 6.0757 0.338361
0.110013 5.3848 0.0882844 0.0295406 -1.6747 0.0116151 1.59829 -1.5944 0.457944 1.88959
-0.88199 0.990723 1.59949 -0.0637001 -0.989236 1.8583 3.13479 0.947232 0.116926 2.7073
1.47963 -0.409396 2.69613 -0.254198 0.2056 0.163965 -0.752283 1.11816 -0.418321 -0.737152
1.50714 0.476689 1.5078 0.80685 -1.42776 -0.191549 1.42399 -1.31248 0.699785 1.85843
-0.0791248 -1.01006 1.90907 2.79272 1.64444 -0.240368 2.39311 1.19057 -0.0645554 1.25705
-0.417541 0.551084 3.05303 1.6004 -0.435243 -0.0527334 -0.975857 1.63939 -0.0714353 -0.997204
2.00023 2.30559 1.65916 0.0597056 -1.04806 -0.383333 1.34194 -0.919841 0.950551 1.68614
-0.365376 1.20665 1.38979 3.19768 1.50559 -0.551844 0.0290544 -0.897786 1.34154 -0.0713065
-0.91041 1.84959 1.46844 1.60832 0.507925 2.65774 1.26078 -0.345311 0.477246 -0.571841
0.864645 -0.605508 -0.568157 1.40742 -0.373822 1.19662 1.41201 0.042423 -1.05977 1.76041
-0.0907558 1.26943 1.30182 20 0 0 20 0 0 -1.52093
0.174637 1.9521 5.56089 0.342891 0.195223 4.93792 0.156025 0.104974 0.107339 -1.11701
1.84297 3.59752 1.59642 -0.448526 0.148901 -1.15143 2.10195 3.30884 1.63451 -0.167912
-1.39213 -0.0176014 1.75785 -1.46625 0.37179 2.07058 3.21559 1.31851 -0.582835 0.237594
-0.758082 1.07442 -0.161757 -0.75428 1.63897 0.432231 1.40394 1.09823 3.03621 0.741021
0.136768 2.45354 -0.117736 0.319829 -1.10568 -0.205351 1.57433 -1.24913 0.579047 2.05627
3.75288 1.52807 -0.63288 0.170365 -1.04485 1.51804 0.239064 -1.10503 2.15099 2.65849
1.63701 0.249639 0.431253 1.37548 1.15552 2.59729 0.911913 -0.158515 1.1445 -0.315428
0.627744 -0.716545 -0.38754 1.48261 -0.898101 0.801945 1.91245 0.343362 -1.12404 1.58857
3.83261 1.37979 -0.747787 0.342794 -0.939266 1.21339 0.255058 -0.9569 1.98495 1.56553
1.53241 0.805651 3.0686 1.00734 -0.506892 0.610568 -0.542358 0.845458 -0.276988 -0.566946
1.539 -0.377573 1.03438 1.6826 0.575703 -1.32025 2.03982 4.28352 1.57644 -0.401563
0.586512 -1.23535 1.68769 4.39857 1.52758 -0.658057 0.648919 -1.31999 2.28193 3.92488
1.6138 -0.00349894 1.5876 1.47366 0.952743 20 0 0 3.75647 1.10889
-0.779468 20 0 0 0.601705 -0.777552 0.958493 0.177425 -0.75069 1.76408
0.426798 1.24575 1.41661 -1.01566 0.104439 2.06086 4.67416 0.194218 0.192197 4.35019
0.245691 0.135648 4.48497 1.42924 -0.838055 0.706199 -1.11981 1.33222 0.696308 -1.18625
2.30167 2.9859 1.57967 0.545878 -0.834817 -0.0543615 1.86261 -1.05254 0.266104 2.19107
2.92443 0.426154 0.0437591 2.20591 0.019222 0.376064 -0.552726 -0.213176 1.67792 -0.933207
0.439153 2.20043 0.862506 -1.17565 1.36449 2.85559 0.57682 -0.327278 1.18303 -0.23967
0.628478 -0.208406 -0.371127 1.58311 -0.66938 0.632244 2.09439 4.46883 1.21249 -0.956055
0.896172 -0.980284 1.02427 0.646565 -0.949686 2.10854 1.6188 1.3906 1.16073 1.31007
-1.49365 1.87218 5.1824 1.49553 -0.629497 1.31295 -1.54251 2.23465 5.122 1.54214
-0.270808 3.10972 1.50181 0.776782 3.47966 0.715193 -0.706065 0.925838 -0.533907 0.75169
1.35563 -1.35183 1.4663 5.19632 1.44297 -0.866733 1.29473 -1.43154 2.44991 4.54512
1.56377 0.280616 0.173136 -0.528654 1.63237 -0.227812 0.840826 1.91541 5.19777 1.29602
-1.04888 1.45285 -1.17984 1.09063 1.19481 -1.16799 2.42694 3.19039 1.45108 0.927237
1.51139 -1.19691 1.0969 4.22642 0.865235 -0.982496 1.10774 -0.79171 0.782582 0.586069
-0.684748 1.84526 0.499785 1.03551 1.70794 20 0 0 20 0
0 -0.121743 0.0718468 2.08233 3.8422 -0.0350945 0.10102 3.80862 0.326564 0.149472
0.0784569 -0.0377844 1.88907 -0.253469 0.185643 2.2219 2.84399 0.083979 -0.139273 2.01132
0.113717 0.389337 2.26143 -1.7475 2.05405 6.14203 1.4403 -0.529049 0.305246 -0.150582
1.71452 -0.274873 0.314679 2.25968 2.29969 -1.64166 1.62085 6.01587 1.41132 -0.844029
2.15102 -1.66883 2.40001 6.02589 1.48915 -0.0166939 4.87711 1.47409 0.58 1.82333
-1.18494 0.965939 3.09798 0.236457 -0.535211 4.98144 1.00959 -1.15217 1.33229 -0.201617
0.563638 1.56759 -0.993088 0.786726 1.05381 -0.839759 2.17344 1.64085 1.1714 1.50588
0.540452 -0.269446 1.6241 -0.160674 0.466962 2.19637 2.3124 -1.43038 1.18264 5.96611
1.33488 -1.07661 1.9291 -1.38991 2.56808 4.98694 1.44442 0.679046 3.76301 0.419335
-0.895745 1.33074 -0.52783 0.60235 0.790429 -0.391443 1.66404 0.133054 0.635695 2.067
2.23404 -1.17174 0.801153 5.76779 1.12441 -1.24027 2.30815 -1.19161 0.802758 1.64221
-0.993373 2.47081 3.2235 1.22326 1.31783 4.46957 0.618985 -1.14388 1.68212 -0.774442
0.565451 3.41578 -1.89752 1.75826 3.24575 -1.86582 2.18171 6.99448 1.34506 -0.762525
7.22078 1.37541 -0.318602 1.08182 -0.502875 1.84994 0.70648 0.790313 1.91191 6.6347
1.39981 0.313936 20 0 0 20 0 0 3.43936 -1.72278
1.28798 6.81227 1.3189 -1.05579 2.89755 -1.58906 2.48216 6.74276 1.38396 0.372619
1.24126 0.128212 2.01372 3.28847 -0.294651 -0.0313762 3.39617 0.381355 0.154305 1.45618
0.0964727 1.83489 0.995729 0.169408 2.15707 2.81827 -0.244353 -0.338899 1.93687 0.154701
0.361001 1.59751 0.0581384 1.68106 0.789184 0.234658 2.22026 5.20492 0.802416 -1.29004
2.29346 -0.956331 0.516988 1.46051 -0.588233 2.13606 1.69046 0.885909 1.75746 3.35537
-1.43854 0.845241 6.60701 1.18735 -1.2672 2.42519 -1.13444 2.57639 5.09528 1.20882
1.10796 3.21777 -0.0778446 -0.70982 1.59535 -0.193269 0.453228 1.66707 0.00140389 1.60296
0.688086 0.328381 2.19516 3.77892 0.156758 -1.01224 1.79796 -0.508176 0.419044 1.70392
-0.0718653 1.63241 0.761981 0.437609 2.10562 2.96058 -1.09174 0.494054 8.05717 1.29584
-0.0159028 4.49672 -1.99199 1.81873 8.10707 1.26922 -0.59752 4.67757 -1.96157 1.36072
7.7789 1.25729 -0.990347 4.05454 -1.74012 2.19444 8.1555 1.28649 0.0196861 6.02363
0.940447 -1.36652 3.19998 -1.14033 0.485823 1.99185 -0.642343 2.38522 3.13223 0.894801
1.60568 4.3456 0.417573 -1.21172 2.28474 -0.72132 0.329116 4.62694 -1.71549 0.892003
7.51067 1.18827 -1.25117 3.40996 -1.24743 2.4275 6.96464 1.15793 0.812886 1.77191
-0.139197 1.77641 1.10938 0.528394 1.98383 20 0 0 20 0
0 3.17315 0.29188 1.87383 3.01138 -0.578655 -0.159258 3.15458 0.399393 0.153085
3.42952 0.378847 1.71464 2.7669 0.224431 2.0175 2.79032 -0.547426 -0.476084 2.02648
0.145777 0.296636 6.94082 1.01352 -1.39149 4.39681 -1.37286 0.479357 2.72362 -0.667844
2.43718 4.87645 0.835851 1.41594 3.48209 0.454068 1.5906 2.31639 0.196733 2.09948
4.99851 0.646942 -1.32681 3.02413 -0.875408 0.237714 1.94632 -0.166711 1.99377 1.84904
0.555935 1.84897 9.00883 1.19732 -0.369924 3.12607 -0.344369 -0.781576 1.95682 -0.203707
0.319089 5.81688 -2.03671 1.3487 5.32954 -1.83233 1.75026 8.86001 1.17533 -0.8704
9.13051 1.18762 -0.339211 3.35156 0.48926 1.53723 1.93151 0.209286 2.10067 3.62616
-0.971981 0.196852 5.94708 -1.93608 0.901769 8.49138 1.13383 -1.20297 4.54516 -1.32816
2.05789 8.49836 1.09353 0.411593 3.46751 -0.0406262 -1.00132 2.30523 -0.476044 0.228744
3.11329 0.477434 1.56634 1.71514 0.241205 2.03265 5.8182 0.803199 -1.38566 4.06234
-1.04195 0.167246 2.30202 -0.13674 2.17029 3.02628 0.492574 1.6933 5.76599 -1.63222
0.474442 7.93232 1.01727 -1.37828 3.64092 -0.673534 2.22439 6.598 0.757251 1.10985
3.83894 0.297799 -1.14115 2.8865 -0.648105 0.100157 2.87054 0.442134 1.66915 1.77316
0.252664 1.91616 9.67934 1.10385 -0.730604 6.65947 -1.87827 1.21993 9.88793 1.08565
-0.695015 20 0 0 20 0 0 6.80648 0.870711 -1.40201
5.36197 -1.26138 0.121379 2.87996 -0.0622202 2.16528 4.48333 0.357744 1.46562 5.76961
0.522735 1.68658 2.89166 -0.864643 -0.225747 3.09129 0.379339 0.146235 7.11545 -2.0126
0.840188 5.79108 -1.39402 1.54606 9.546 1.04379 -1.12368 9.56627 1.02391 -0.0522058
6.11101 0.766885 1.54778 5.129 0.310491 1.8352 4.39275 0.586566 -1.22549 3.72285
-0.778812 -0.0239971 2.7314 0.429985 1.80826 2.20606 0.198656 1.76082 2.68899 -0.80768
-0.4953 2.28114 0.101487 0.218012 6.075 0.989983 1.46356 4.35548 0.161603 1.93661
7.12736 -1.84392 0.441781 8.96564 0.960976 -1.34083 4.70492 -0.684957 1.7935 7.96753
0.698607 0.642089 4.22207 -0.847921 -0.0682743 2.83637 -0.547462 -0.71292 2.40304 -0.223781
0.180911 5.71115 1.14255 1.45353 3.61584 0.0739832 1.9567 10.1855 0.975905 -1.05666
2.93159 -0.164832 -0.844015 5.21306 0.767371 -1.27159 2.83989 -0.4457 0.051677 4.85532
-0.935584 -0.124438 2.79216 0.476774 1.90028 5.1503 1.20347 1.50656 3.04246 0.0534568
1.5492 3.04851 0.0189717 1.89429 6.782 -1.50856 0.082393 7.90295 0.856322 -1.38625
3.66551 0.0193072 1.91342 5.87254 0.210753 1.07897 7.97483 -1.89302 0.694047 7.12561
-1.471 0.991184 10.5687 0.93522 -1.01649 10.4089 0.932895 -0.517933 3.13472 0.251476
-0.928831 3.4856 -0.583643 -0.103539 4.54528 1.19256 1.59235 2.77 -0.0498998 1.7579
8.30395 -1.93917 0.364566 10.0187 0.86154 -1.28525 5.91772 -0.742938 1.25152 8.93685
0.650933 0.0627597 6.27388 0.822704 -1.28575 6.21691 -1.14694 -0.197291 3.10981 0.577055
1.84036 4.135 -0.163714 1.2257 20 0 0 20 0 0
9.07722 0.745184 1.51747 10.3637 0.819076 -1.26171 2.83744 -1.10552 -0.200789 3.63909
0.600038 -0.995547 3.20706 0.319673 0.121927 4.39945 -0.701271 -0.252463 8.14776 -1.71824
0.0322233 9.02797 0.782844 -1.3525 4.64385 0.0534133 1.46499 4.03374 1.16029 1.67289
6.87377 0.103615 0.486374 9.53628 1.16465 1.39721 2.86607 -0.179077 1.54894 8.11264
0.369479 1.6746 2.52683 -1.00369 -0.388515 2.69117 0.0282194 0.129183 9.37461 1.54502
1.35247 6.9214 0.0906005 1.80038 4.80112 -0.752693 -0.293679 2.47483 -0.686736 -0.51634
2.93496 -0.257876 0.0433631 8.70999 1.82129 1.39134 5.75768 -0.0995157 1.84008 7.47871
0.770424 -1.2747 7.65054 -1.38333 -0.254452 3.69388 0.683201 1.57708 5.17304 -0.392908
0.715187 4.50453 0.811353 -1.05107 5.604 -0.855479 -0.376064 8.49934 -1.55769 0.485668
11.2303 0.786306 -0.915344 3.72661 1.1556 1.69264 3.34702 -0.392382 1.24824 10.1031
0.713458 -1.30181 2.39509 -0.239258 -0.576943 3.41882 -0.436478 -0.109267 9.19499 -1.87476
0.23672 7.29439 -0.866987 0.70961 11.0377 0.73612 -1.21573 9.86902 0.595241 -0.49537
7.76728 1.96211 1.4843 4.7982 -0.239753 1.77662 10.0241 0.684614 -1.31042 9.31936
-1.83452 -0.0387192 10.1252 0.674645 -1.30615 5.85359 -0.0104237 0.934929 7.55198 0.0300796
-0.217217 2.51234 0.231996 -0.63032 4.11856 -0.551071 -0.281986 6.76468 1.9815 1.58117
4.1661 -0.37931 1.60941 5.66391 0.861447 -1.08983 6.99752 -1.05865 -0.46704 3.69935
1.1927 1.58678 4.09095 -0.673359 0.814284 8.9952 -1.5888 -0.308615 8.71688 0.658399
-1.25037 4.56671 0.724948 1.15387 5.90205 -0.577131 0.00497022 3.02291 0.619461 -0.702796
5.1068 -0.662396 -0.449618 5.86484 1.92673 1.63886 3.93697 -0.564005 1.33904 20
0 0 20 0 0 12.7501 0.964606 1.36514 2.84761 -1.25339
-0.0906458 3.51894 0.232662 0.0619746 13.2786 1.47478 1.24962 11.4213 0.466033 1.55297
9.10378 0.617354 -1.23973 5.45959 -0.704482 -0.488795 2.37901 -1.12931 -0.193521 3.24661
-0.0607914 0.0158423 9.81802 -1.62137 0.0719207 8.78197 -1.02948 0.247416 11.8562 0.585729
-1.14972 11.0547 0.51131 -0.912744 12.886 1.90997 1.23692 9.78317 0.0706546 1.72528
10.2528 -1.81832 -0.137863 11.1614 0.545638 -1.24804 7.3231 -0.171783 0.427121 8.44082
-0.00110471 -0.802719 8.54876 0.637636 -1.18849 2.1897 -0.775273 -0.247897 3.55408 -0.304752
-0.103392 6.97955 0.771199 -1.10526 8.41339 -1.27838 -0.53451 3.99691 1.24231 1.32693
11.8696 2.24794 1.32793 4.87632 -0.967831 0.216004 8.21118 -0.222652 1.79866 3.96647
0.853754 -0.791709 6.36716 -0.81275 -0.589582 5.17612 1.85003 1.61858 4.11317 -0.816251
0.955883 2.04294 -0.29325 -0.269588 4.0713 -0.450295 -0.267124 10.1558 -1.71632 -0.37021
9.90875 0.531957 -1.21759 5.80121 0.647878 0.669191 6.41894 -0.706633 -0.753715 10.5665
2.46468 1.47738 6.89377 -0.452696 1.74394 7.65895 0.689487 -1.10523 2.15985 0.20104
-0.319652 4.83064 -0.548883 -0.44848 9.2204 2.54899 1.6108 5.95663 -0.661875 1.55699
6.83788 0.790997 -1.02565 5.24921 0.913258 -0.878623 7.75735 -1.00001 -0.691542 4.77027
1.78348 1.48669 4.6046 -1.12521 0.448835 8.32247 0.609685 -1.10521 9.71581 -1.47018
-0.5906 4.69778 1.24114 0.951641 5.54474 -1.21351 -0.498021 10.2485 -1.17729 -0.109675
12.1949 0.368633 -1.12728 5.7728 0.876336 -0.901871 10.9863 -1.6362 -0.259272 8.95962
-0.382091 0.0111484 12.0876 0.398263 -1.18593 10.0005 0.024907 -1.11587 2.71126 0.601116
-0.416733 5.8845 -0.654237 -0.623843 7.98798 2.52167 1.6788 5.47119 -0.890063 1.2451
5.21496 0.915784 -0.829585 20 0 0 20 0 0 11.1328
-1.73176 -0.448085 11.0202 0.405662 -1.17162 7.41053 0.47355 0.205234 7.21552 -0.739642
-1.28797 15.6222 1.24692 1.0733 6.28323 -0.697305 -0.668508 2.97668 -1.29077 0.0506728
4.01402 0.157635 -0.0319405 16.0367 1.60293 0.969171 14.1353 0.773105 1.30279 2.31047
-1.19217 0.0221658 3.90367 -0.132663 -0.123701 15.3253 1.83483 0.969205 12.2993 0.312273
1.56845 3.76186 0.847423 -0.586984 6.69011 0.811649 -0.942601 9.11673 -1.19404 -0.764451
4.70923 1.72685 1.23857 5.26696 -1.44508 -0.158515 3.40914 0.769628 -0.509651 2.05995
-0.831142 0.0221919 4.2428 -0.342389 -0.265635 14.091 2.07039 1.09007 10.5597 -0.0861969
1.73259 2.721 0.581557 -0.344128 3.72684 0.84634 -0.55195 7.16252 -0.792283 -0.767006
10.8567 -1.59645 -0.647809 9.61725 0.451101 -1.09844 5.93504 1.1332 0.534317 6.96467
2.42266 1.65374 6.13914 -1.38008 -1.16736 5.4435 -1.15768 0.818354 2.1389 0.164434
-0.14041 1.98499 -0.518025 0.0171187 1.95008 -0.340961 -0.00468228 2.07215 -0.836015 0.0499316
2.34178 -1.19549 0.0690555 3.11004 -1.26843 0.0820318 20 0 0 1.94343
-0.34438 0.0143052 4.8029 -0.465274 -0.431898 12.7115 2.3268 1.31399 9.07947 -0.425568
1.73963 11.5632 -1.27397 -0.386914 10.5751 -0.589114 -0.288306 12.8136 0.217056 -1.13568
11.9013 0.0274963 -1.18863 8.12798 0.617271 -0.98326 10.3527 -1.363 -0.821851 5.12341
1.64178 0.915229 5.97972 -1.71213 -0.779057 2.12892 0.14701 -0.0550933 5.11983 0.922799
-0.693372 5.62168 -0.551112 -0.608452 8.49679 -0.953743 -0.86886 11.9661 -1.60485 -0.538004
12.0446 0.272918 -1.11178 9.20418 0.263414 -0.173453 6.20623 2.29039 1.52289 8.87493
-0.612909 -1.43628 11.3056 2.52991 1.53702 5.80716 -1.45906 0.299834 7.99775 -0.723698
1.58322 11.866 -1.6286 -0.714349 10.8358 0.320748 -1.07808 7.69618 0.95981 0.1205
6.93563 -1.4103 -1.5804 2.74153 0.540367 -0.191229 6.705 -0.645191 -0.772692 9.958
2.62655 1.67893 7.39818 -1.00448 1.28182 20 0 0 20 0
0 17.0705 1.48063 0.782305 7.28838 -0.701037 -0.833403 3.34792 -1.22858 0.13797
6.68693 0.835606 -0.814771 4.64098 0.141592 -0.138516 9.7585 -1.11688 -0.940186 5.76677
2.1466 1.29734 17.1514 1.48985 0.747937 6.44078 -1.75843 -0.251912 15.7379 1.20327
0.945925 2.42385 -1.20419 0.191966 4.59501 -0.148662 -0.274378 9.49967 0.426885 -1.0114
11.462 -1.47888 -0.877934 6.22974 1.48183 0.568028 16.1736 1.33577 0.706707 6.69285
-1.87669 -1.28389 14.0162 0.80143 1.24989 3.80382 0.782646 -0.372281 7.93797 -0.763221
-0.901003 8.74827 2.61305 1.70221 7.29979 -1.28163 0.870707 2.15094 -0.867478 0.229018
4.95711 -0.337497 -0.431622 12.0234 -0.757708 -0.50784 13.2406 -0.0172319 -1.10303 15.0156
1.32269 0.744269 12.4258 0.377945 1.52068 12.6704 -1.31601 -0.626358 10.9212 0.0457316