# vtk DataFile Version 2.0
sampleSurface
ASCII
DATASET POLYDATA
POINTS 4972 float
4 2.90752e-06 0 4 -0.0312483 0 4 2.85017e-06 0.0312519 4 0.031254
0 4 -0.0312483 0.0312519 4 0.031254 0.0312519 4 -0.0624994 0
4 2.75539e-06 0.0625039 4 0.062505 0 4 -0.0624995 0.0312519 4
-0.0312484 0.0625039 4 0.0312539 0.0625038 4 0.062505 0.0312519 4 -0.0624996
0.0625038 4 0.0625049 0.0625038 4 -0.0937506 0 4 2.62364e-06 0.0937558
4 0.093756 0 4 -0.0937506 0.0312519 4 -0.0312486 0.0937557 4
0.0937559 0.0312518 4 0.0312537 0.0937557 4 -0.0937507 0.0625037 4 -0.0624998
0.0937557 4 0.0937558 0.0625036 4 0.0625048 0.0937556 4 -0.125002 0
4 0.125007 0 4 2.45461e-06 0.125008 4 -0.125002 0.0312518 4
0.125007 0.0312518 4 -0.0312487 0.125008 4 0.0312536 0.125008 4 -0.0937509
0.0937555 4 0.0937557 0.0937554 4 -0.125002 0.0625035 4 -0.0624999 0.125007
4 0.125007 0.0625035 4 0.0625046 0.125007 4 -0.156253 0 4
-0.125002 0.0937553 4 -0.0937511 0.125007 4 0.156257 0 4 0.125006
0.0937552 4 0.0937555 0.125007 4 2.2494e-06 0.156259 4 -0.156253 0.0312517
4 0.156257 0.0312517 4 -0.031249 0.156259 4 0.0312534 0.156259 4
-0.156253 0.0625034 4 0.156257 0.0625033 4 -0.0625002 0.156259 4 0.0625044
0.156259 4 -0.125002 0.125007 4 0.125006 0.125007 4 -0.156253 0.093755
4 -0.0937514 0.156259 4 0.156257 0.0937549 4 0.0937553 0.156259 4
-0.187503 0 4 0.187508 0 4 2.0071e-06 0.187511 4 -0.187503
0.0312516 4 0.187508 0.0312516 4 -0.0312492 0.187511 4 0.0312532 0.187511
4 -0.187504 0.0625032 4 0.187508 0.0625031 4 -0.0625005 0.187511 4
0.0625042 0.187511 4 -0.156253 0.125007 4 -0.125002 0.156259 4 0.156257
0.125007 4 0.125006 0.156259 4 -0.187504 0.0937547 4 0.187507 0.0937546
4 -0.0937517 0.187511 4 0.0937551 0.187511 4 -0.218754 0 4
0.218758 0 4 1.73283e-06 0.218763 4 -0.218754 0.0312515 4 0.218758
0.0312515 4 -0.156253 0.156258 4 0.156257 0.156258 4 -0.0312495 0.218763
4 0.0312529 0.218763 4 -0.187504 0.125006 4 0.187507 0.125006 4
-0.125003 0.18751 4 0.125006 0.18751 4 -0.218754 0.0625029 4 0.218758
0.0625029 4 -0.0625008 0.218763 4 0.0625039 0.218763 4 -0.218754 0.0937544
4 0.218758 0.0937543 4 -0.093752 0.218762 4 0.0937549 0.218762 4
-0.187504 0.156258 4 -0.156254 0.18751 4 0.187507 0.156258 4 0.156257
0.18751 4 -0.250004 0 4 0.250008 0 4 1.43381e-06 0.250015
4 -0.250005 0.0312514 4 -0.218755 0.125006 4 0.250008 0.0312513 4
0.218758 0.125006 4 -0.125003 0.218762 4 0.125006 0.218762 4 -0.0312498
0.250015 4 0.0312526 0.250014 4 -0.250005 0.0625027 4 0.250008 0.0625027
4 -0.0625011 0.250014 4 0.0625037 0.250014 4 -0.187505 0.187509 4
0.187507 0.187509 4 -0.250005 0.093754 4 0.250008 0.093754 4 -0.0937523
0.250014 4 0.0937546 0.250014 4 -0.218755 0.156257 4 0.218757 0.156257
4 -0.156254 0.218761 4 0.156256 0.218761 4 -0.250005 0.125005 4
0.250008 0.125005 4 -0.125003 0.250014 4 0.125005 0.250013 4 -0.281255
0 4 0.281258 0 4 1.11352e-06 0.281266 4 -0.281255 0.0312512
4 0.281258 0.0312512 4 -0.0312501 0.281266 4 0.0312523 0.281266 4
-0.281255 0.0625025 4 0.281258 0.0625024 4 -0.218755 0.187509 4 0.218757
0.187508 4 -0.187505 0.218761 4 0.187507 0.21876 4 -0.0625014 0.281266
4 0.0625033 0.281266 4 0.0815282 0.281265 4 0.0625033 0.286625 4
0.0937543 0.278097 4 -0.250005 0.156257 4 0.250008 0.156256 4 -0.156254
0.250013 4 0.156256 0.250012 4 -0.281255 0.0937537 4 0.281258 0.0937536
4 -0.0937526 0.281266 4 0.0937542 0.281265 4 0.0312521 0.295659 4
0.125005 0.27035 4 8.6292e-07 0.304749 4 0.156256 0.262911 4 -0.281255
0.125005 4 0.281258 0.125005 4 0.125005 0.281264 4 -0.125004 0.281265
4 -0.218756 0.21876 4 0.218757 0.21876 4 -0.312505 0 4
0.312508 0 4 -0.250006 0.187508 4 0.250007 0.187508 4 -0.187505
0.250012 4 0.187506 0.250012 4 7.80021e-07 0.312517 4 -0.0269853 0.312517
4 -0.312505 0.0312511 4 0.312508 0.0312511 4 0.0312519 0.312517 4
-0.0312505 0.312517 4 -0.0312505 0.313916 4 0.187506 0.255809 4 -0.312505
0.0625022 4 0.312508 0.0625022 4 0.062503 0.312517 4 -0.0625017 0.312517
4 -0.281256 0.156256 4 0.281258 0.156256 4 0.156256 0.281264 4
-0.156255 0.281264 4 -0.312505 0.0937533 4 0.312508 0.0937532 4 0.0937539
0.312516 4 -0.093753 0.312517 4 0.214502 0.250011 4 -0.0625018 0.323793
4 0.218757 0.249112 4 -0.250006 0.218759 4 0.250007 0.218759 4
-0.218756 0.250011 4 0.218757 0.250011 4 -0.312505 0.125004 4 0.312508
0.125004 4 0.125005 0.312515 4 -0.125004 0.312516 4 -0.281256 0.187507
4 0.281257 0.187507 4 0.187506 0.281263 4 -0.187506 0.281263 4
-0.343755 0 4 0.343758 0 4 4.42059e-07 0.343769 4 -0.343755
0.031251 4 0.343758 0.031251 4 0.0312516 0.343768 4 -0.0312508 0.343769
4 -0.0937532 0.33293 4 0.250007 0.243101 4 -0.343755 0.062502 4
-0.312506 0.156255 4 0.343758 0.0625019 4 0.312507 0.156255 4 0.156255
0.312515 4 -0.156255 0.312515 4 0.0625026 0.343768 4 -0.062502 0.343768
4 0.250007 0.25001 4 -0.250007 0.25001 4 -0.343755 0.0937529 4
0.343758 0.0937529 4 -0.281256 0.218758 4 0.281257 0.218758 4 0.218756
0.281262 4 -0.218756 0.281262 4 0.0937535 0.343767 4 -0.0937533 0.343768
4 -0.125004 0.341229 4 -0.312506 0.187506 4 0.312507 0.187506 4
0.187506 0.312514 4 -0.187506 0.312515 4 -0.343755 0.125004 4 0.343757
0.125004 4 0.125004 0.343766 4 -0.125004 0.343767 4 0.281257 0.237336
4 -0.135979 0.343767 4 -0.375004 0 4 0.375008 0 4
1.09444e-07 0.375019 4 -0.375005 0.0312509 4 0.375007 0.0312509 4 0.281257
0.250009 4 -0.281257 0.250009 4 0.250006 0.281261 4 -0.250007 0.281261
4 0.0312512 0.375019 4 -0.0312511 0.375019 4 -0.343756 0.156255 4
0.343757 0.156255 4 0.156255 0.343765 4 -0.156256 0.343766 4 -0.375005
0.0625017 4 0.375007 0.0625017 4 0.0625022 0.375019 4 -0.0625023 0.375019
4 -0.312506 0.218758 4 0.312507 0.218757 4 0.218756 0.312513 4
-0.218757 0.312514 4 -0.156256 0.349389 4 -0.375005 0.0937526 4 0.375007
0.0937525 4 0.0937531 0.375018 4 -0.0937536 0.375019 4 0.312507 0.231749
4 -0.343756 0.187506 4 0.343757 0.187506 4 0.187505 0.343764 4
-0.187506 0.343765 4 -0.375005 0.125003 4 0.375007 0.125003 4 0.125004
0.375017 4 -0.125005 0.375018 4 0.281256 0.28126 4 -0.281257 0.28126
4 0.312507 0.250008 4 -0.312507 0.250008 4 0.250006 0.312512 4
-0.250007 0.312512 4 -0.187507 0.356711 4 -0.406254 0 4 -0.375005
0.156254 4 0.406257 0 4 0.375007 0.156254 4 0.156254 0.375016
4 -0.156256 0.375017 4 -2.07883e-07 0.40627 4 -0.406254 0.0312508 4
0.406257 0.0312507 4 -0.343756 0.218757 4 0.343757 0.218756 4 0.218756
0.343763 4 -0.218757 0.343764 4 0.0312509 0.40627 4 -0.0312514 0.40627
4 -0.406254 0.0625015 4 0.406257 0.0625015 4 0.0625019 0.406269 4
-0.0625026 0.40627 4 0.343757 0.226278 4 -0.406254 0.0937522 4 0.406257
0.0937522 4 0.0937527 0.406268 4 -0.0937538 0.406269 4 -0.375006 0.187505
4 0.375007 0.187505 4 0.187505 0.375015 4 -0.187507 0.375016 4
0.312506 0.281259 4 -0.312507 0.281259 4 0.281256 0.31251 4 -0.281258
0.312511 4 -0.218757 0.362686 4 -0.406255 0.125003 4 0.406257 0.125003
4 0.343757 0.250007 4 -0.343757 0.250008 4 0.250006 0.343762 4
-0.250008 0.343763 4 0.125003 0.406267 4 -0.125005 0.406269 4 -0.375006
0.218756 4 0.375006 0.218756 4 0.218755 0.375014 4 -0.218757 0.375015
4 0.375006 0.220884 4 -0.406255 0.156254 4 0.406257 0.156254 4
0.156254 0.406266 4 -0.156256 0.406268 4 -0.437504 0 4 0.437507
0 4 -4.97918e-07 0.43752 4 -0.437504 0.0312506 4 0.437507 0.0312506
4 0.0312506 0.43752 4 -0.0312516 0.43752 4 -0.437504 0.0625013 4
0.437506 0.0625013 4 0.312506 0.312509 4 -0.312508 0.31251 4 0.0625015
0.437519 4 -0.0625028 0.43752 4 0.343756 0.281258 4 -0.343757 0.281258
4 0.281256 0.343761 4 -0.281258 0.343762 4 -0.250008 0.367245 4
0.388542 0.218755 4 -0.437504 0.0937519 4 -0.406255 0.187504 4 0.437506
0.0937519 4 0.406256 0.187504 4 0.187504 0.406265 4 -0.187507 0.406267
4 0.0937523 0.437518 4 -0.093754 0.43752 4 0.375006 0.250006 4
-0.375006 0.250007 4 0.250005 0.375013 4 -0.250008 0.375014 4 -0.437504
0.125003 4 0.437506 0.125003 4 0.125003 0.437517 4 -0.125005 0.437519
4 0.406256 0.215628 4 -0.406256 0.218755 4 0.406256 0.218755 4
0.218755 0.406264 4 -0.218758 0.406266 4 -0.437504 0.156253 4 0.437506
0.156253 4 0.343756 0.312508 4 0.312506 0.34376 4 -0.343757 0.312509
4 -0.312508 0.343761 4 0.156253 0.437516 4 -0.156256 0.437518 4
-0.281258 0.370302 4 -0.468753 0 4 0.468756 0 4 0.375006
0.281257 4 -0.375007 0.281257 4 0.281255 0.375011 4 -0.281258 0.375013
4 -7.52289e-07 0.46877 4 -0.468753 0.0312506 4 0.468756 0.0312505 4
0.0312503 0.46877 4 -0.0312518 0.46877 4 -0.468753 0.0625011 4 0.468756
0.0625011 4 0.0625012 0.468769 4 -0.062503 0.46877 4 -0.437505 0.187504
4 0.437506 0.187504 4 0.187504 0.437515 4 -0.187507 0.437517 4
0.406256 0.250005 4 -0.406256 0.250006 4 0.250005 0.406263 4 -0.250008
0.406265 4 -0.468753 0.0937516 4 0.468756 0.0937516 4 0.0937519 0.468768
4 -0.0937541 0.468769 4 -0.468753 0.125002 4 0.468756 0.125002 4
0.125003 0.468767 4 -0.125005 0.468769 4 0.437506 0.210501 4 -0.312508
0.371724 4 0.343755 0.343759 4 -0.343758 0.34376 4 0.375006 0.312507
4 -0.375007 0.312508 4 0.312505 0.37501 4 -0.312508 0.375012 4
-0.437505 0.218754 4 0.437506 0.218754 4 0.218754 0.437514 4 -0.218758
0.437516 4 -0.468754 0.156253 4 0.468756 0.156253 4 0.406256 0.281256
4 -0.406256 0.281257 4 0.281255 0.406262 4 -0.281258 0.406263 4
0.156253 0.468766 4 -0.156256 0.468768 4 -0.500002 0 4 0.500006
0 4 -9.63934e-07 0.50002 4 -0.500002 0.0312505 4 0.500006 0.0312505
4 0.03125 0.500019 4 -0.031252 0.50002 4 -0.500003 0.0625009 4
0.500006 0.0625009 4 -0.437505 0.250005 4 0.437506 0.250005 4 0.250004
0.437513 4 -0.250008 0.437515 4 0.0625008 0.500019 4 -0.0625031 0.500019
4 -0.468754 0.187503 4 0.468756 0.187503 4 0.187503 0.468765 4
-0.187507 0.468767 4 -0.343758 0.371295 4 -0.500003 0.0937514 4 0.500005
0.0937514 4 0.375005 0.343758 4 0.343755 0.375009 4 -0.375007 0.343759
4 -0.343758 0.37501 4 0.0937516 0.500018 4 -0.0937542 0.500019 4
0.468755 0.205624 4 0.406255 0.312506 4 -0.406257 0.312507 4 0.312505
0.40626 4 -0.312508 0.406262 4 -0.500003 0.125002 4 0.500005 0.125002
4 0.125002 0.500017 4 -0.125005 0.500019 4 -0.468754 0.218754 4
0.468755 0.218754 4 0.218754 0.468764 4 -0.218758 0.468766 4 0.437505
[...]
POINT_DATA 4972
FIELD attributes 1
U 3 4972 float
20 0 0 20 0 0 11.1769 0.498835 0.543898 20 0
0 10.2016 0.878591 0.426639 9.53365 -0.00911418 0.499557 20 0 0
6.79826 1.14095 0.858039 20 0 0 7.89559 1.14907 0.276609 6.0472
1.35722 0.760782 6.02599 0.814617 0.713722 6.92843 -0.428773 0.232421 5.22297 1.64242
0.65707 4.20721 0.391579 0.295347 20 0 0 4.43021 1.58388 1.05665
20 0 0 6.71519 1.48062 0.267073 4.27754 1.77216 1.02144 5.77344
-0.555083 -0.0453995 4.15759 1.36068 0.898985 5.15344 2.05065 0.715381 4.38921 2.03796
0.995852 2.90742 0.0344804 -0.0968896 3.19356 1.00868 0.502466 20 0 0
20 0 0 3.12173 1.70904 1.24153 6.80368 1.88232 0.449673 6.63245
-0.481731 -0.0926793 3.44325 1.92337 1.25941 2.83788 1.47554 1.10216 4.71921 2.33137
1.04807 2.1686 0.552902 0.125317 5.20799 2.3725 0.86366 3.99616 2.15123 1.27748
2.98595 -0.276241 -0.176085 2.27057 1.15274 0.798246 20 0 0 4.87288
2.47852 1.06967 4.51683 2.32846 1.28766 20 0 0 2.01589 -0.033061
0.0719459 1.62453 0.679949 0.513828 2.23664 1.53502 1.45992 6.62415 2.20194 0.634274
8.63556 -0.52995 0.0839777 2.78263 1.76341 1.51223 1.87226 1.28305 1.33073 4.97426
2.43729 0.927143 4.22119 -0.724028 0.157877 3.51146 1.96522 1.53277 1.48978 0.965924
1.10899 4.77657 2.35431 1.18393 1.57247 -0.00778352 0.52474 4.87927 2.3872 0.962405
4.15009 2.09021 1.4805 2.74568 -0.72715 0.535049 1.17143 0.493029 0.917806 20
0 0 20 0 0 1.47025 1.14322 1.68111 5.72613 2.36433
0.63667 9.85434 -0.896321 0.394711 2.04158 1.36463 1.75245 1.12387 0.892075 1.55463
4.6853 2.282 0.843579 4.99609 -1.24163 0.849518 2.79006 1.55543 1.76072 0.903677
0.578038 1.37925 4.87681 2.1987 0.935551 4.51139 2.0829 1.28046 2.16825 -0.697818
0.959687 1.32084 -0.138966 0.94263 4.96169 2.09538 0.774835 3.26977 -1.23245 1.33734
3.48285 1.68547 1.65465 0.867409 0.150341 1.22097 20 0 0 20
0 0 0.776518 0.626838 1.86308 4.8574 2.52403 0.510211 8.26537 -1.36845
0.829643 4.64983 1.94426 0.942471 1.94508 -0.622524 1.19118 1.25446 0.835776 1.94358
0.545766 0.382068 1.7299 4.98309 1.90954 0.652135 2.78223 -1.00001 1.53185 3.94849
1.71878 1.39726 1.21754 -0.296881 1.1609 4.601 2.06492 0.694688 4.30396 -1.62815
1.58023 1.9256 1.01944 1.9434 0.523478 0.0969233 1.54669 5.1288 1.69616 0.62809
3.34757 -1.38619 1.89826 2.60617 1.17402 1.8068 0.742843 -0.20408 1.33675 4.71392
1.72767 0.581607 4.21002 1.65959 1.0214 2.67706 -0.676479 1.41537 1.91356 -0.511024
1.1624 20 0 0 20 0 0 0.181539 0.0645437 1.98277
4.60699 2.82425 0.394023 5.10654 1.5452 0.471886 5.31974 -1.91336 1.13812 3.29384
-0.890937 1.77209 3.14822 1.27545 1.51913 1.26834 -0.414368 1.13841 0.503748 0.261229
2.07254 0.138449 -0.146161 1.81224 4.69755 1.91635 0.575283 3.69289 -1.93898 1.74281
1.05633 0.439464 2.06757 0.337558 -0.33818 1.55939 4.40309 1.54384 0.616246 2.75265
-0.388853 1.10759 5.23901 1.2825 0.575454 3.71638 -1.3628 1.77121 1.68334 0.607752
1.92001 0.773379 -0.465579 1.25579 4.78513 1.46451 0.321861 3.44144 -0.400797 1.39966
3.57499 1.31591 1.12565 2.04871 -0.416992 0.947017 5.19614 1.13655 0.443695 4.01005
-0.646805 1.50697 2.26595 0.757718 1.62077 1.44941 -0.486487 0.954725 20 0
0 20 0 0 -0.286394 -0.422324 2.01594 4.76041 3.2203 0.270161
4.15363 -2.60579 0.945047 -0.156121 -0.273247 2.13377 -0.124319 -0.544134 1.77301 4.87469
1.93329 0.446783 4.18363 -2.22291 1.21018 4.62566 1.37934 0.26853 3.68008 -0.0569492
0.964467 4.03265 1.30551 0.686583 2.98414 -0.212957 0.742301 0.255758 -0.119233 2.12747
0.26693 -0.608419 1.43473 0.634337 -0.604952 1.21566 0.258229 -0.624227 1.40695 0.860605
-0.588822 1.09321 4.8701 1.14058 0.225863 4.35026 -0.0711356 1.13422 2.84539 0.87492
1.2143 2.33408 -0.381115 0.674995 5.2751 0.984737 0.558862 4.59047 -1.39599 1.1143
0.81679 0.0371139 1.97648 0.870444 -0.602724 1.07488 -0.215516 -0.625477 1.71365 1.60803
-0.51757 0.821766 -0.552043 -0.633122 1.96271 2.49339 -0.39256 0.586684 5.25131 0.746134
0.529972 5.02796 -0.57294 0.936364 1.69316 -0.534252 0.750409 1.41801 0.193164 1.67835
4.63101 1.23747 0.249716 4.00979 0.10887 0.559842 20 0 0 20
0 0 4.87878 1.13576 0.0410009 4.70101 0.278999 0.777625 3.6006 0.955606
0.739283 3.36763 -0.165515 0.414621 -0.639923 -0.702856 1.9451 -0.676144 -0.656433 2.07902
5.07154 3.62245 0.0660683 4.57111 -3.09361 0.395233 -0.322331 -0.72075 1.64413 -0.681868
-0.649096 2.10019 -0.697508 -0.655903 2.09392 3.46429 -0.176757 0.372525 5.19792 2.21516
0.210556 5.11252 -2.44166 0.425607 0.216195 -0.700599 1.27274 -0.42145 -0.570037 2.09907
4.96785 0.768674 0.298464 5.4455 0.046453 0.75098 2.72007 -0.408846 0.461031 2.11261
0.340025 1.27172 5.40449 1.00648 0.447338 5.73427 -1.61184 0.298184 0.978399 -0.651405
0.922348 0.0585895 -0.47425 1.94721 4.30871 0.0818454 0.235815 -0.589558 -0.66677 2.04548
4.44415 0.120482 0.217771 5.33587 1.08581 -0.128946 5.06418 0.426727 0.436522 4.67686
0.994645 0.22111 4.45702 0.120826 0.207637 5.36988 0.532411 0.59592 6.29212 -0.825536
0.256418 1.98682 -0.583845 0.628086 0.654354 -0.367242 1.6605 5.11324 0.802608 -0.0141909
5.80987 0.430303 0.582452 3.88866 -0.226119 0.187691 3.10859 0.478778 0.789102 20
0 0 20 0 0 -0.883088 -0.755964 1.80455 5.50837 3.93437
-0.218516 5.20325 -3.20902 -0.206514 -0.461401 -0.713845 1.51188 -1.03124 -0.801147 1.9603
-0.306997 -0.72645 1.84742 5.4126 0.422501 0.156026 5.79863 2.72068 -0.179655 5.14108
0.457673 0.442879 6.11242 -2.59361 -0.391202 6.73313 -0.184948 0.273039 3.22656 -0.494622
0.367355 1.40396 -0.249003 1.28041 0.213521 -0.686741 1.1768 -0.887376 -0.83814 1.95053
5.51149 0.421302 0.0764196 6.011 0.976634 -0.288128 5.89402 1.46703 0.0883332 6.99935
-1.95798 -0.589304 5.97249 0.833242 -0.359504 6.1213 0.626699 0.346659 5.0873 0.0112438
-0.0554756 4.59392 0.617936 0.249805 1.16402 -0.674116 0.879274 -0.501105 -0.860356 1.79444
0.0941343 -0.823325 1.53844 5.34208 0.46608 0.0716462 7.01936 0.297354 0.281135 4.62246
-0.370901 0.103679 2.51638 -0.103853 0.843252 5.80004 0.709351 0.390661 7.73323 -1.34064
-0.592096 2.42008 -0.664326 0.637736 0.0446042 -0.863648 1.52765 6.34932 0.656786 0.133663
0.299142 -0.853401 1.41295 20 0 0 20 0 0 -0.805545
-0.672117 1.63979 6.02244 4.03418 -0.55426 5.81894 -2.95509 -0.740143 6.50488 0.677311
-0.0116421 7.2782 0.875285 -0.682939 6.22018 0.288291 -0.254491 6.51912 0.748899 -0.314616
-0.339592 -0.628379 1.43223 -0.985655 -0.77906 1.72915 5.59907 0.39039 0.381006 8.20123
-0.741576 -0.487844 3.96247 -0.640107 0.42449 0.769421 -0.834469 1.20105 6.6355 3.22108
-0.715952 7.02662 -2.55807 -1.157 0.430582 -0.649337 1.18747 -0.899207 -0.928327 1.67216
6.43055 0.541721 -0.421522 7.19409 0.638732 0.145507 6.05497 -0.197743 -0.174355 4.20164
0.0875393 0.372069 0.707423 -0.92611 1.16554 6.83941 2.18303 -0.583021 8.17523 -2.21717
-1.50045 1.55167 -0.711116 0.968537 -0.610847 -1.09365 1.5032 7.30847 0.7208 0.00366502
5.80832 0.278557 0.0387053 8.35725 -0.141962 -0.385865 5.70112 -0.589142 0.191364 1.84735
-0.74634 0.856532 6.74991 1.28451 -0.288415 9.13116 -1.86257 -1.61749 3.07104 -0.777252
0.795057 -0.17863 -1.24452 1.26445 7.26636 0.584751 -0.428477 8.45071 0.837939 -0.825084
7.46925 0.836147 -0.195696 8.19219 0.718519 -0.913713 7.44082 0.0353567 -0.47006 6.46271
0.31179 -0.1318 1.62902 -1.00139 0.81849 20 0 0 6.58168 0.677143
-0.202157 20 0 0 9.72571 -1.40342 -1.60212 4.96277 -0.819668 0.647005
0.42484 -1.3438 1.00372 -0.0526206 -0.511405 1.4628 6.49583 3.82691 -0.872967 6.26444
-2.28521 -1.10133 6.98529 0.344207 -0.534393 8.33979 0.416844 -0.445114 7.51029 -0.502566
-0.10705 3.46791 -0.581237 0.517828 0.320104 -0.504947 1.39092 -0.153302 -0.63559 1.43207
7.49227 3.47777 -1.29369 7.59709 -2.20927 -1.72623 1.03808 -0.594857 1.26967 -0.0589738
-0.864933 1.29679 8.38618 0.517075 -0.51616 8.04721 2.8029 -1.43399 8.89732 -2.16574
-2.23607 2.19989 -0.734192 1.15478 0.143709 -1.15851 1.10784 6.84544 0.360473 -0.455589
9.88513 -0.771774 -1.55641 7.09874 -0.841147 0.467582 1.3203 -1.36202 0.764697 8.30645
0.856848 -0.689267 9.87282 0.877117 -1.22373 8.7989 0.331801 -0.80775 8.83911 0.542867
-0.65625 2.97103 -1.01113 0.544642 8.20037 1.99025 -1.34117 10.0678 -2.08705 -2.53554
8.53254 0.83329 -0.740299 9.00089 0.595434 -1.16463 9.32621 -0.362643 -0.521528 5.66197
-0.366221 0.170228 3.89552 -0.867578 1.07772 0.413277 -1.45455 0.905174 8.09051 0.339342
-0.999883 9.81329 -0.040865 -1.60705 9.30247 -0.865712 0.171398 2.64727 -1.29124 0.562114
9.83076 0.00113977 -1.6223 8.22123 1.24645 -1.29433 10.9735 -1.84051 -2.70657 6.09022
-0.957876 1.03009 0.787878 -1.69276 0.715499 20 0 0 20 0
0 1.5729 -0.228712 1.27464 6.79678 3.29702 -1.05307 6.41394 -1.35363 -1.21352
1.65663 -0.268281 1.34066 1.70118 -0.354815 1.11997 8.1122 3.36105 -1.70059 7.62693
-1.57497 -1.94059 10.2456 0.655694 -1.26874 10.534 0.773695 -1.17104 2.09987 -0.427334
1.35025 1.89381 -0.648527 0.908762 9.5376 1.00921 -1.24768 10.9391 0.880781 -1.647
11.2013 -0.138814 -1.10593 8.03226 -0.129701 -0.234968 4.73407 -0.968156 0.325974 10.685
-0.297213 -2.18304 9.15245 3.06515 -2.14828 8.64022 0.751783 -1.45993 8.88522 -1.78729
-2.54198 11.5201 -1.33333 -2.82047 8.55246 -1.02717 0.943119 1.3628 -1.83931 0.564477
3.07416 -0.636804 1.35844 2.04151 -1.0518 0.703906 10.0697 0.575906 -1.83088 10.2071
0.560012 -1.66583 11.4489 -0.881311 -0.369134 4.42709 -1.16729 0.377499 9.82188 2.50393
-2.35254 10.1673 -1.94927 -2.9657 4.7275 -0.817126 1.40996 2.12137 -1.47529 0.536462
11.7951 -0.702797 -2.92516 9.91597 0.580655 -1.86629 11.8257 -0.632682 -2.9368 10.8572
-1.14022 0.670641 2.24452 -1.88997 0.455859 10.2897 1.8472 -2.46269 11.433 -1.92273
-3.27542 11.8581 0.885558 -1.92321 13.2072 0.184937 -1.8739 11.5509 0.942865 -1.75537
9.61763 0.160479 -0.746961 7.01728 -0.910718 1.49938 2.19206 -1.84532 0.408907 6.60853
-0.898852 0.0856245 20 0 0 20 0 0 11.2923 0.884854
-2.23136 12.223 0.848933 -2.2409 13.5168 -0.771509 -1.24865 6.35584 -1.03537 0.142525
4.02598 0.220019 1.09044 6.88177 2.57274 -1.02542 6.21562 -0.37694 -1.10936 3.65875
0.163961 1.26363 4.50225 0.0569929 0.842345 8.36888 2.89624 -1.78089 7.16095 -0.841303
-1.79293 3.61911 -0.0426295 1.38006 4.8692 -0.329453 0.580766 10.9633 1.30144 -2.60082
12.5913 -1.62388 -3.50711 9.47638 -0.931214 1.51692 2.36318 -2.12155 0.3183 12.3645
0.0218563 -3.09028 11.9242 0.655995 -2.40488 12.507 -1.26708 -0.0363736 3.45722 -1.87682
0.365281 9.8126 2.88192 -2.44031 8.23823 -1.28033 -2.37222 4.14013 -0.30736 1.49501
4.98238 -0.851439 0.377833 11.0139 2.60158 -2.89425 9.48821 -1.64422 -2.8165 5.41362
-0.521202 1.65858 4.85336 -1.39158 0.246617 13.3274 -1.24622 -3.62862 7.84939 -0.743015
-0.325134 15.1191 0.482303 -2.64845 10.2719 0.448766 -1.43271 13.7008 0.820694 -2.74822
12.7424 0.976949 -2.4789 15.6397 -0.413186 -2.33519 7.6415 -0.84924 -0.27554 12.1592
0.98683 -2.82463 13.5916 -1.11069 -3.67222 11.1408 -0.99581 1.19277 2.74368 -2.2946
0.258035 11.989 2.15405 -3.17306 10.9193 -1.79689 -3.16878 13.6471 0.386699 -3.28128
13.8566 0.81333 -2.91205 13.659 -1.19258 -1.24367 4.79778 -1.85194 0.2249 7.39701
-0.583756 1.84981 4.60358 -1.87216 0.164766 20 0 0 20 0
0 7.18912 0.747557 0.933628 6.84622 1.86224 -0.855922 5.76548 0.478229 -0.875163
6.27019 0.733175 1.17805 8.09335 0.48536 0.622978 8.3862 2.2734 -1.5879 6.44999
-0.208898 -1.41162 13.7924 0.86969 -3.11232 14.579 -0.57819 -3.767 11.333 -1.07835
0.167567 3.38695 -2.38519 0.196609 5.62222 0.525804 1.35277 8.67253 -0.0364926 0.341495
12.9233 1.68491 -3.32835 12.4382 -1.66995 -3.43266 9.44658 -0.463827 1.88898 4.38039
-2.25585 0.108146 8.35208 -0.454681 -1.03137 10.0103 2.40635 -2.30164 7.34574 -0.852207
-1.89822 16.6525 0.488292 -3.23766 17.5897 0.0284428 -3.1951 11.1874 0.625431 -2.28416
8.09301 -0.576595 -0.977209 5.50392 0.243272 1.50921 8.74031 -0.684144 0.166438 13.2914
-1.47022 -3.52878 15.6726 0.385689 -3.46145 14.5116 0.883741 -3.18359 15.3698 -0.773394
-2.5394 5.8139 -1.79466 -0.1088 11.4761 2.33415 -2.86557 8.51869 -1.39274 -2.29806
6.0988 0.01756 1.69304 8.36932 -1.31661 0.083525 13.971 1.31538 -3.41363 13.9095
-1.32551 -3.59842 10.2188 -0.315772 1.36196 4.31043 -2.53237 0.0600221 15.7796 -0.237934
-3.7815 15.3706 0.828266 -3.39413 11.3043 -0.982582 -1.36193 4.20932 -2.43733 0.070985
12.7195 2.09389 -3.23987 9.95284 -1.69317 -2.63802 7.37101 -0.0197703 1.86999 7.78816
-1.86706 0.0404262 9.29645 -0.0873507 -1.96111 18.7621 0.169959 -3.54902 8.81505 -0.26881
-1.87887 20 0 0 20 0 0 15.1126 1.06816 -3.47004
15.2532 -0.929477 -3.66045 9.47215 -0.22891 -0.0312165 4.48662 -2.71341 -0.0132933 10.8329
1.09327 0.80806 6.86931 1.28523 -0.668432 5.25579 1.11223 -0.580243 17.7912 0.159313
-3.5548 17.7756 -0.192893 -3.41844 13.2313 0.651797 -3.10238 6.38677 -1.62152 -0.739229
9.32696 1.16606 1.08632 12.2134 0.717261 0.471661 13.7828 1.76733 -3.42742 11.5095
-1.69399 -2.90284 8.75903 0.198888 1.81677 7.21109 -2.31324 -0.00228857 8.44442 1.68843
-1.31514 5.72071 0.234917 -0.926201 8.07944 1.02498 1.27463 12.9971 0.0892541 0.209488
17.1639 -0.169995 -3.70738 16.1844 0.754284 -3.57294 12.9868 -0.641271 -2.66103 5.01245
-2.45507 -0.221563 12.1831 -1.59131 -2.97897 10.0887 1.88958 -1.97508 6.49342 -0.577975
-1.293 7.35708 0.79387 1.40658 12.9534 -0.610252 0.0962859 11.7937 0.247662 -2.8787
11.5754 1.9517 -2.53313 14.7124 1.4461 -3.47142 7.64834 -1.26885 -1.62956 13.0375
-1.46108 -3.07552 9.16549 0.540367 1.09079 7.27287 0.608281 1.51352 6.79096 -2.65201
-0.0657138 12.2963 -1.25028 0.0723081 16.4487 -0.652611 -3.62253 16.1723 0.884362 -3.51596
9.29976 -0.158532 -1.6926 4.92221 -2.82864 -0.162188 19.1855 -0.0284043 -3.53592 19.3816
0.0919814 -3.64448 10.9322 0.00546192 -2.74465 7.19132 -1.30239 -1.56328 12.8394 1.8799
-2.9354 9.13556 -1.69078 -1.95513 7.75362 0.59971 1.56976 11.398 -1.79945 0.0563906
18.3855 -0.266312 -3.5595 15.7783 0.539147 -3.57541 16.343 -0.0868063 -3.41582 5.75458
-2.37175 -0.750306 15.5383 1.17656 -3.43789 14.4474 -1.14949 -3.15311 8.74703 0.773975
-0.396329 6.6524 -2.89233 -0.180135 20 0 0 20 0 0
14.0682 0.923492 0.566389 15.3092 0.390608 -3.49719 7.10015 0.844394 -0.540146 13.8971
1.70495 -3.16361 4.80788 1.48943 -0.245832 10.7139 -1.79345 -2.23715 17.4538 -0.563568
-3.50132 16.9452 0.696692 -3.55207 11.2771 -0.0279472 -2.8002 8.44267 0.827834 1.36876
5.55974 -2.89109 -0.449457 12.2444 1.06716 0.889972 10.5363 -2.25266 0.00737583 15.8016
0.561175 0.214862 8.74272 1.21053 -1.11084 5.07334 0.485405 -0.396298 10.7349 1.05225
1.10152 16.7694 0.0338069 0.0245668 11.2018 -1.74628 -2.30772 10.371 1.4579 -1.69148
5.74132 -0.448549 -0.63521 9.77597 0.956228 1.20274 16.6435 -0.515758 0.0319035 16.2782
0.948125 -3.38379 15.6887 -0.917093 -3.15438 9.15671 0.799846 -1.88374 6.85692 -3.05423
-0.380613 14.7692 1.47965 -3.24127 12.177 -1.652 -2.44878 19.7433 -0.0230719 -3.43914
9.19243 -0.858804 -2.3371 8.8238 1.19344 0.585081 9.88958 -2.61007 -0.0927947 17.0118
0.467108 -3.56461 11.8002 1.61562 -2.19535 6.9231 -1.2434 -0.904689 19.1668 -0.336672
-3.37786 19.0664 0.264749 -3.56944 14.393 0.100431 -3.34439 6.76047 -2.11534 -1.42349
9.38388 0.88518 1.21438 15.8328 -1.02257 0.0915331 17.2992 0.471119 -3.56088 18.2066
-0.59512 -3.33912 17.3351 0.448226 -3.56178 15.0612 0.340536 -3.30078 6.36878 -2.86042
-0.898498 12.9972 1.67098 -2.58342 8.60153 -1.73793 -1.24095 9.41061 0.943286 1.13809
14.8201 -1.48888 0.108864 15.5002 1.24868 -3.22696 13.4964 -1.40315 -2.58302 9.15623
1.44285 -0.668537 9.59339 -2.87505 -0.264758 16.7106 -0.827742 -3.10263 16.9614 0.72683
-3.33785 11.2916 0.764868 -2.72953 7.3824 -3.14881 -0.693006 13.996 1.62666 -2.8373
10.3801 -1.8894 -1.58172 9.66205 1.16176 0.849895 13.8916 -1.90268 0.0595019 20
0 0 20 0 0 16.1572 0.28827 0.233913 7.57382 0.482438
-0.483913 4.46863 1.57996 0.115446 14.5849 0.408361 0.597866 17.8683 0.109581 -0.118756
17.1736 0.646997 -3.32502 10.803 -1.86515 -1.66067 9.28147 0.813493 -1.0025 4.54381
0.566119 0.136832 19.6029 -0.280073 -3.18688 19.9172 0.166224 -3.28703 12.9275 -0.506941
-2.92032 8.67432 -1.62496 -2.02644 13.4065 0.49582 0.84295 18.9503 -0.104025 -0.226171
18.7367 -0.621621 -3.16696 17.2565 0.102318 -3.46575 18.5552 0.624792 -3.33702 7.45767
-2.64291 -1.4015 16.8871 0.76125 -3.24255 10.887 1.10329 -1.51407 5.08189 -0.433298
0.0193396 16.1532 1.0268 -3.17578 14.7157 -1.19146 -2.65675 10.3044 1.44515 -1.76236
12.7394 0.55519 0.953384 9.70781 -3.05978 -0.526608 18.9368 -0.33078 -0.111238 14.8211
1.50228 -2.96274 11.8909 -1.80276 -1.86377 10.1032 1.46388 0.186293 13.2315 -2.24515
-0.0645018 12.2431 1.33462 -1.95166 6.28041 -1.2694 -0.187381 17.4953 -0.836239 -3.01669
17.6152 0.480901 -3.29832 14.9288 0.927936 -3.00536 8.14071 -3.13519 -1.08004 12.5264
0.623559 0.941565 18.3106 -0.593493 0.00945804 16.4738 0.915895 -3.14466 13.3573 1.48255
-2.29728 8.25323 -1.7696 -0.558308 12.5611 0.765431 0.832805 17.5595 -0.899032 0.0622315
16.1351 1.07608 -3.07241 15.5096 1.32687 -2.99205 13.1437 -1.60988 -2.07047 11.002
1.66446 -0.67635 12.9745 -2.50422 -0.271469 16.787 0.807581 -3.11426 15.8299 -1.08351
-2.68647 12.6681 1.37121 -2.33323 10.1541 -3.15742 -0.86311 19.9051 -0.0921896 -2.97497
12.2501 -1.09408 -2.45541 15.73 1.25442 -2.98207 19.1677 -0.557818 -2.98233 19.959
0.481433 -3.04909 16.8335 -0.325491 -3.16508 9.2811 -2.11813 -1.78291 14.2845 1.53701
-2.54384 10.3943 -1.9051 -0.995294 12.719 1.00468 0.599104 16.9068 -1.22023 0.0494298
15.5594 1.34395 -2.9287 20 0 0 20 0 0 18.0989
-0.850856 -2.90577 18.2022 0.191654 -3.22099 18.4238 1.05153 -2.94176 9.12999 -2.87931
-1.39817 17.6177 -0.285069 0.0643443 10.9156 -1.88083 -1.11133 8.20889 0.134391 -0.482214
4.26676 1.42139 0.45023 16.5618 -0.235825 0.403209 18.9557 -0.292124 -0.245927 9.91057
0.44971 -0.954943 4.15017 0.520385 0.608452 15.9664 -0.139906 0.639792 19.8769 -0.241283
-0.309342 15.0211 1.50177 -2.73114 16.1162 1.12748 -2.96458 14.2854 -1.42506 -2.21312
12.6316 1.68487 -1.34534 13.1409 -2.67839 -0.561222 14.8142 1.51274 -2.64532 11.4518
0.781487 -1.40268 4.53725 -0.470021 0.591024 15.8076 -0.0175206 0.764743 19.9932 -0.213931
-0.184453 14.395 1.50142 -2.45871 15.0553 1.50169 -2.69151 12.065 -1.82733 -1.36722
16.7815 -1.05694 -2.67229 17.4429 0.579333 -3.04265 15.9804 1.41527 -2.48387 13.1986
1.28679 0.184201 10.7478 -3.08273 -1.16974 16.5048 -1.50838 -0.0374789 13.6258 1.35679
-2.13863 12.2655 0.97126 -1.64026 12.6851 1.09377 -1.78402 11.5031 0.740503 -1.38736
10.0475 0.351373 -0.941535 8.41984 -0.00109284 -0.483254 20 0 0 12.7168
1.0765 -1.77201 5.73919 -1.27543 0.423382 15.9701 0.121042 0.783495 19.7195 -0.277413
-0.0820905 19.5806 -0.37571 -2.76888 20.1087 0.186342 -2.72114 16.5733 -0.743773 -2.70571
12.6429 -1.4756 -2.01668 16.6938 0.92073 -2.90576 15.3789 -1.30347 -2.3033 14.9974
1.67126 -1.69423 13.5065 -2.71573 -0.876211 13.7536 1.29693 -2.06311 15.6977 1.39138
-2.7527 8.04895 -1.70653 0.00993154 13.3115 -1.67916 -1.64245 18.6125 -0.799572 -2.76889
18.678 -0.132259 -3.03424 19.9773 0.815005 -2.69608 14.1972 1.49804 -0.311205 10.8236
-2.25575 -1.53436 16.2135 0.309788 0.720578 16.4654 -1.73108 -0.212839 19.4148 -0.412279
-0.02966 17.5454 -1.04742 -2.61373 18.1275 0.338221 -2.94073 18.8602 1.37119 -2.42063
11.5325 -2.67215 -1.28759 14.6276 1.42648 -2.27944 10.6017 -1.78124 -0.518455 16.4157
0.579431 0.596406 19.1814 -0.601196 -0.00913306 20 0 0 20 0
0 18.9949 -0.530355 0.0495052 11.4758 -1.74601 -0.731289 8.79612 -0.242768 -0.485108
16.2504 1.23164 -2.7468 4.24575 1.02813 0.684999 14.3822 -1.53541 -1.83805 15.6898
1.61754 -0.71414 18.3469 -0.493582 0.323409 16.7238 -1.84871 -0.468222 19.8032 -0.470443
-0.185234 10.4063 0.093604 -0.906391 3.92237 0.386995 0.954161 17.2819 0.713284 -2.82167
16.3759 -1.24401 -2.33801 17.6672 1.67265 -1.82435 18.1086 -0.398529 0.520508 13.8286
-2.46298 -1.0627 20.2825 -0.319767 -0.23415 15.366 1.46485 -2.42225 12.4491 -1.70679
-0.968276 16.7671 0.897675 0.386554 19.0837 -0.796865 -0.0411212 11.8341 0.475916 -1.28844
4.18003 -0.479883 1.00131 19.9463 -0.102088 -2.51307 16.8942 -1.02586 -2.20331 18.2246
-0.26325 0.62968 20.3451 -0.222258 -0.17137 19.105 -0.647886 -2.59698 20.2023 0.464845
-2.41858 19.0875 -0.440434 -2.7078 14.025 -1.54793 -1.58486 13.0166 0.833609 -1.5925
5.39593 -1.17485 0.842038 18.5528 -0.0992107 0.658505 20.2782 -0.221147 -0.128152 18.1691