# vtk DataFile Version 2.0
sampleSurface
ASCII
DATASET POLYDATA
POINTS 29622 float
-0.000626264 0.02 0 -0.000711655 0.02 0.0141674 0.0147896 0.02 0 -0.0159899 0.02
0 -0.00116012 0.02 0.0180502 -0.0155282 0.02 0.0128408 0.0125134 0.02 0.0160665
-0.00153405 0.02 0.0212859 -0.0157761 0.02 0.0167357 0.0119059 0.02 0.0199308 -0.0159829
0.02 0.0199816 0.0113994 0.02 0.0231511 0.0307112 0.02 0 -0.03158 0.02
0 -0.0313963 0.02 0.0122895 0.0322044 0.02 0.0100037 -0.0314347 0.02 0.0161643
-0.0314668 0.02 0.0193933 0.035056 0.02 0.01626 0.0338862 0.02 0.0221196 0.0329105
0.02 0.0270048 0.046561 0.02 0 -0.04742 0.02 0 0.0479306 0.02
0.0101734 -0.0474942 0.02 0.0127772 -0.0473299 0.02 0.0165239 -0.0471929 0.02 0.0196463
0.00924481 0.02 0.0516915 0.0494094 0.02 0.0183313 -0.0134021 0.02 0.0516237 0.0480848
0.02 0.0247778 0.00925064 0.02 0.0544086 0.0469797 0.02 0.0301574 -0.0134578 0.02
0.0549233 -0.0260141 0.02 0.0516224 0.00925771 0.02 0.0576651 0.0285421 0.02 0.0517212
-0.0335024 0.02 0.0503979 -0.0262833 0.02 0.0549314 0.0285517 0.02 0.0551565 -0.0338111
0.02 0.0524296 0.0624323 0.02 0 -0.0635513 0.02 0 0.0631854 0.02
0.0123018 -0.0341816 0.02 0.0548694 -0.0631422 0.02 0.0145995 -0.0627523 0.02 0.0179257
-0.0624271 0.02 0.0206975 0.0285632 0.02 0.0592835 -0.00839835 0.02 0.0658926 0.063721
0.02 0.0227067 -0.0482842 0.02 0.0478235 0.00967915 0.02 0.067425 0.0458271 0.02
0.0517467 -0.0226337 0.02 0.0654011 0.0630239 0.02 0.028683 -0.0486978 0.02 0.0509764
0.062443 0.02 0.0336742 0.0458203 0.02 0.055416 0.026845 0.02 0.0680903 -0.0491941
0.02 0.054759 -0.035021 0.02 0.0649161 0.0458122 0.02 0.0598276 -0.0191597 0.02
0.0732754 -0.00311666 0.02 0.077051 -0.00255422 0.02 0.0782358 0.0784938 0.02 0
0.00194428 0.02 0.0786012 -0.0636358 0.02 0.0466853 -0.0173222 0.02 0.0775525 -0.0765921
0.02 0.0224313 -0.00232999 0.02 0.0798271 -0.0772697 0.02 0.0204922 0.0788037 0.02
0.0139438 -0.0780823 0.02 0.0181648 -0.0802538 0.02 0 0.0124228 0.02 0.0794745
0.0621102 0.02 0.0517893 -0.0640599 0.02 0.0501172 0.044288 0.02 0.0683138 -0.0503008
0.02 0.0642321 0.07854 0.02 0.0258466 0.0621029 0.02 0.0552551 -0.0333233 0.02
0.0767836 -0.0333103 0.02 0.0768858 -0.0334615 0.02 0.0768769 -0.0332875 0.02 0.077004
0.0784374 0.02 0.0301441 0.0269021 0.02 0.0796185 -0.0645673 0.02 0.0542281 -0.0167508
0.02 0.0829226 0.0783517 0.02 0.0337218 0.0620941 0.02 0.059424 0.0435428 0.02
0.078852 -0.0787026 0.02 0.044501 -0.0656735 0.02 0.063512 0.0609156 0.02 0.0687538
-0.0521327 0.02 0.0759212 -0.0794839 0.02 0.0479436 0.0779046 0.02 0.0518514 0.0948037
0.02 0 -0.0158667 0.02 0.0942564 -0.000383487 0.02 0.0955942 -0.0804181 0.02
0.0520697 0.0951817 0.02 0.0152146 0.0779126 0.02 0.0570228 -0.0980541 0.02 0
0.0937075 0.02 0.0295273 0.0934653 0.02 0.0318318 0.0932639 0.02 0.033747 -0.0307605
0.02 0.0947054 0.0142616 0.02 0.0986948 0.0597441 0.02 0.0801689 -0.0909562 0.02
0.0419181 -0.0668854 0.02 0.075392 -0.0998412 0.02 0.016911 -0.0922551 0.02 0.0437855
0.0168196 0.02 0.100996 0.0269517 0.02 0.0992279 0.0450617 0.02 0.09251 0.07753
0.02 0.0682577 -0.0817634 0.02 0.0636401 -0.0938102 0.02 0.0460256 -0.0998281 0.02
0.0335224 0.0926972 0.02 0.0518158 -0.0507033 0.02 0.0933516 -0.00118864 0.02 0.107376
-0.0198713 0.02 0.105984 0.0930811 0.02 0.0549867 0.0322709 0.02 0.103383 -0.0471823
0.02 0.0993111 0.0611389 0.02 0.0920601 0.0757902 0.02 0.0815793 0.111368 0.02
0 -0.0819878 0.02 0.0758654 0.106626 0.02 0.033755 0.111677 0.02 0.015575
-0.0512522 0.02 0.100983 -0.0693622 0.02 0.0901735 0.0443505 0.02 0.105441 -0.114433
0.02 0 0.0941685 0.02 0.0681304 -0.098111 0.02 0.0626988 -0.115406 0.02
0.0159041 0.106639 0.02 0.0514943 0.077111 0.02 0.092559 0.062589 0.02 0.103095
-0.116732 0.02 0.0309014 -0.11361 0.02 0.0456422 -0.0830293 0.02 0.0904377 0.0620976
0.02 0.106128 0.0917701 0.02 0.0824748 -0.0692362 0.02 0.103597 -0.0157512 0.02
0.123653 -0.0981586 0.02 0.0769568 -0.0286459 0.02 0.121586 0.0616911 0.02 0.108642
-0.00135098 0.02 0.126852 0.127678 0.02 0 0.127681 0.02 0.0157497 0.0779179
0.02 0.103318 0.110542 0.02 0.067339 -0.129878 0.02 0 0.0135636 0.02
0.129698 -0.115046 0.02 0.0624473 -0.13025 0.02 0.0155149 0.0926218 0.02 0.0929193
0.127607 0.02 0.0317518 -0.0512544 0.02 0.12196 0.0769845 0.02 0.107826 -0.0979274
0.02 0.0912246 -0.130467 0.02 0.0307187 -0.0830669 0.02 0.105459 0.108343 0.02
0.0804684 0.076205 0.02 0.111591 0.033156 0.02 0.131508 0.0291973 0.02 0.132459
0.126891 0.02 0.0510967 -0.129316 0.02 0.0457947 -0.114159 0.02 0.077738 -0.0672405
0.02 0.121204 0.0915473 0.02 0.105188 0.0335813 0.02 0.13607 0.125156 0.02
0.064945 -0.12863 0.02 0.0610193 0.0903924 0.02 0.110214 0.108416 0.02 0.0927111
-0.0167998 0.02 0.141976 -0.00122092 0.02 0.143552 0.0443986 0.02 0.136994 0.144241
0.02 0 0.014292 0.02 0.143703 -0.0976212 0.02 0.106426 -0.033047 0.02
0.140708 -0.144999 0.02 0 0.144192 0.02 0.0157437 0.0894279 0.02 0.114412
-0.145097 0.02 0.0153857 -0.0822205 0.02 0.121736 0.123616 0.02 0.079756 -0.114272
0.02 0.0926863 0.14381 0.02 0.0316597 -0.0499473 0.02 0.138659 -0.14504 0.02
0.0306779 0.14253 0.02 0.0481078 0.109841 0.02 0.102812 -0.14452 0.02 0.0459283
-0.130173 0.02 0.0778439 -0.0659231 0.02 0.138019 0.140391 0.02 0.0629309 0.0619994
0.02 0.14141 0.1236 0.02 0.0935311 -0.11262 0.02 0.107019 -0.0971985 0.02
0.122314 -0.144037 0.02 0.0612498 0.0610269 0.02 0.144909 -0.00109627 0.02 0.157281
0.112365 0.02 0.110111 -0.0169303 0.02 0.156556 0.0146763 0.02 0.15714 0.0303439
0.02 0.155927 -0.0330245 0.02 0.155701 0.138275 0.02 0.0797507 -0.129523 0.02
0.0935127 0.111013 0.02 0.115179 -0.160051 0.02 0 -0.0813649 0.02 0.138082
0.0598586 0.02 0.149119 -0.160049 0.02 0.0153647 0.161091 0.02 0 0.161419
0.02 0.0155742 0.109887 0.02 0.119403 -0.0491994 0.02 0.154789 0.124483 0.02
0.104644 0.0457774 0.02 0.156097 -0.143679 0.02 0.076667 -0.159941 0.02 0.0307111
0.0761826 0.02 0.145158 0.161411 0.02 0.0311713 -0.159648 0.02 0.0460564 -0.112328
0.02 0.122769 0.159875 0.02 0.0467547 -0.0650648 0.02 0.154354 0.0747878 0.02
0.150266 0.155991 0.02 0.0621477 -0.0966568 0.02 0.138348 0.137954 0.02 0.0972345
-0.12931 0.02 0.108561 0.125571 0.02 0.113477 -0.159317 0.02 0.0614462 0.124052
0.02 0.118682 0.152113 0.02 0.0801569 -0.000945772 0.02 0.171985 -0.144929 0.02
0.0933401 -0.0168136 0.02 0.171642 0.0148827 0.02 0.171926 0.0731134 0.02 0.156401
0.0602399 0.02 0.161942 0.122788 0.02 0.123016 -0.0806767 0.02 0.154269 0.0306552
0.02 0.171538 -0.0327603 0.02 0.171154 -0.175135 0.02 0 -0.175104 0.02
0.0153837 0.139708 0.02 0.10779 -0.159018 0.02 0.0769012 -0.127584 0.02 0.123127
0.177422 0.02 0 -0.0486967 0.02 0.170677 -0.175002 0.02 0.030773 -0.111953
0.02 0.138634 0.178245 0.02 0.0153881 0.0973805 0.02 0.151095 -0.144169 0.02
0.108886 -0.17481 0.02 0.0461761 0.0450262 0.02 0.175324 0.178976 0.02 0.0308584
0.1534 0.02 0.0975439 -0.0961491 0.02 0.154362 0.0752222 0.02 0.165707 -0.0644954
0.02 0.170392 0.171563 0.02 0.0625428 0.140548 0.02 0.117763 0.164921 0.02
0.0802817 0.177632 0.02 0.0464933 -0.15876 0.02 0.0924223 0.0956442 0.02 0.157102
-0.174576 0.02 0.0616128 0.138848 0.02 0.123066 -0.000797289 0.02 0.187164 0.137431
0.02 0.127484 -0.0166397 0.02 0.186993 0.015021 0.02 0.187152 0.0601932 0.02
0.178304 -0.0801553 0.02 0.170288 -0.127292 0.02 0.138895 0.0935604 0.02 0.164311
0.0308071 0.02 0.187002 -0.0324987 0.02 0.186723 0.109749 0.02 0.154715 -0.14375
0.02 0.124002 0.155561 0.02 0.108915 -0.190287 0.02 0 -0.111575 0.02
0.154522 -0.174341 0.02 0.0770964 -0.190252 0.02 0.0154145 0.192081 0.02 0
-0.0483322 0.02 0.186456 -0.190168 0.02 0.0308401 -0.159337 0.02 0.108678 0.192798
0.02 0.015142 0.107888 0.02 0.160863 0.0757736 0.02 0.179351 0.167558 0.02
0.0992129 -0.0957207 0.02 0.170305 -0.190031 0.02 0.046283 0.193359 0.02 0.0304075
0.186572 0.02 0.0617725 0.0451314 0.02 0.191407 0.154026 0.02 0.122375 -0.0640896
0.02 0.186272 -0.174121 0.02 0.0926298 0.191952 0.02 0.0458818 0.182046 0.02
0.0790949 0.105655 0.02 0.168241 0.152267 0.02 0.127652 -0.142678 0.02 0.139122
-0.18986 0.02 0.0617532 -0.126999 0.02 0.154697 0.150801 0.02 0.132046 0.123413
0.02 0.158982 -0.158909 0.02 0.124147 0.0908508 0.02 0.18095 0.0605345 0.02
0.193218 -0.0797642 0.02 0.186185 -0.000663263 0.02 0.202576 0.0151311 0.02 0.202574
-0.0164706 0.02 0.202486 0.170746 0.02 0.110267 -0.111233 0.02 0.170387 -0.189679
0.02 0.0772585 0.0309089 0.02 0.2025 -0.0322747 0.02 0.202338 0.121458 0.02
0.165139 -0.17406 0.02 0.108309 0.205076 0.02 0 -0.205512 0.02 0
0.205099 0.02 0.0148235 -0.205481 0.02 0.0154458 0.204553 0.02 0.0297533 0.202511
0.02 0.0448143 0.183105 0.02 0.0976458 0.198739 0.02 0.0600511 -0.205415 0.02
0.0309025 -0.048054 0.02 0.202184 -0.0953731 0.02 0.186175 0.0756224 0.02 0.195474
0.119113 0.02 0.172531 0.105845 0.02 0.18174 -0.14244 0.02 0.154866 -0.205314
0.02 0.0463754 -0.1581 0.02 0.139316 -0.189501 0.02 0.0928015 0.172722 0.02
0.121629 0.19693 0.02 0.0767081 0.0454421 0.02 0.206433 -0.0637857 0.02 0.202068
-0.126725 0.02 0.170499 -0.174089 0.02 0.124038 -0.205187 0.02 0.0618705 0.0911397
0.02 0.195716 0.186009 0.02 0.110685 -0.11094 0.02 0.186215 0.0608037 0.02
0.208112 -0.0794642 0.02 0.202003 0.215224 0.02 0.0290984 0.216771 0.02 0.014522
0.213014 0.02 0.0437438 0.217464 0.02 0 -0.000546128 0.02 0.218103 0.175966
0.02 0.129296 0.210501 0.02 0.058189 -0.189708 0.02 0.108537 0.0152247 0.02
0.218099 -0.0163223 0.02 0.218056 -0.205048 0.02 0.0773926 0.121368 0.02 0.182669
0.199005 0.02 0.094086 0.0309877 0.02 0.218051 0.174226 0.02 0.134816 -0.0320902
0.02 0.217975 0.145063 0.02 0.165918 -0.220807 0.02 0 -0.157901 0.02
0.155021 -0.220782 0.02 0.0154737 0.172775 0.02 0.139418 -0.142217 0.02 0.170619
-0.173549 0.02 0.139484 -0.220731 0.02 0.0309567 -0.0478372 0.02 0.217886 -0.0950965
0.02 0.201986 0.106373 0.02 0.196425 0.0758406 0.02 0.210351 0.210947 0.02
0.0742626 0.143041 0.02 0.172076 0.188169 0.02 0.123332 -0.204906 0.02 0.0929435
-0.126482 0.02 0.186284 -0.220655 0.02 0.0464532 0.0457602 0.02 0.221204 -0.18917
[...]
POINT_DATA 29622
FIELD attributes 1
p 1 29622 float
-113.257 -111.534 -102.92 -120.368 -109.963 -120.122 -102.164 -109.86 -121.009 -103.037 -122.105
-102.985 -101.495 -126.085 -131.276 -103.662 -138.534 -141.156 -106.345 -107.058 -108.617
-120.986 -125.55 -127.295 -140.227 -157.292 -161.281 -31.3183 -134.531 -44.0786 -131.936
-30.8266 -130.429 -38.9005 -23.5781 -31.8319 -14.9805 16.6961 -17.9008 -15.2878 19.3034
-129.01 -100.216 -139.48 13.9574 -126.012 -150.954 -154.39 -15.3232 -27.4051 -149.794
34.2282 -31.6175 -3.5662 -9.39594 -147.713 35.5669 -144.729 -4.31101 -16.8958 34.0999
15.2197 -4.94342 -5.30912 -24.1217 -24.1754 -108.408 -25.7011 20.2817 -4.12685 -44.3859
-23.9427 -63.718 -116.284 -3.39274 -20.6278 -30.192 -13.8353 24.74 -8.37027 32.6199
-125.07 -13.4101 16.2858 16.2868 16.4363 16.3241 -126.362 -15.8114 32.5484 -4.5375
-125.146 -17.8625 -13.3091 15.0922 39.4934 -23.0019 34.4329 20.5365 -31.6565 -76.937
-4.98613 -21.6624 34.0693 -82.2378 -33.2352 55.3074 -87.3235 -92.7408 -88.913 22.8379
-23.0749 -32.2268 70.6589 46.4888 82.511 60.5931 37.1289 -17.5239 -47.0817 -35.4502
48.7179 79.3684 107.655 -43.9867 51.2096 32.9646 20.9136 -42.4943 17.5001 51.8977
-64.1571 -38.7598 -47.208 56.8712 -61.342 -51.5521 71.4686 59.5102 -49.7812 76.7086
-33.6107 65.4221 85.8836 -46.5803 -48.5057 -95.3757 100.474 94.2598 63.2418 -96.1919
-28.8184 71.7797 18.9715 66.8201 34.0256 -99.6811 41.0996 -23.8721 -25.4991 -58.5633
-22.9802 79.2143 63.9842 76.2316 82.8949 -29.9183 -28.6607 74.3487 -63.0334 66.537
88.1845 68.1924 -15.5206 -63.0978 90.0225 86.9054 -22.871 84.8534 70.7736 70.1598
-29.41 71.1008 -11.9655 75.8221 -32.7345 -16.6109 44.3788 51.5182 66.5029 -8.04939
59.7467 66.4437 50.5816 76.0808 -7.52608 -32.8778 77.4853 66.9729 -8.17593 67.3271
-7.06624 60.151 79.2447 -5.16971 -15.7046 77.2906 69.8944 62.3684 -3.19154 39.3613
-9.3466 65.0281 64.5017 72.4076 39.3548 52.166 -12.2529 51.952 53.9812 54.0821
55.4641 -2.80193 66.1668 -11.1137 72.0675 62.1172 41.3353 72.5138 -0.457473 0.946319
-11.3595 57.941 -7.375 50.4556 68.0144 72.7842 44.8369 2.63751 71.3455 62.6115
4.43569 58.2482 44.263 4.43414 60.9484 -2.17148 63.3519 -2.83953 68.4095 -1.82968
2.87241 49.4873 64.4598 50.2398 50.4154 44.8831 46.9708 -2.32694 58.1813 51.2665
52.739 67.9603 68.013 1.17563 65.2384 60.8488 0.549772 54.4935 67.7621 59.6194
2.04926 49.1035 61.6011 66.6153 50.2281 3.84364 3.37636 57.517 46.5173 54.991
6.05524 5.09795 4.936 5.38098 62.3697 48.8574 64.6198 5.53618 48.4062 4.99504
49.0092 48.5536 47.515 54.9776 58.1815 47.6609 48.6321 50.3274 50.0438 59.0947
5.11209 64.1089 56.6042 62.2973 64.0275 -1.43951 51.4276 63.6249 59.718 -0.009551
49.5389 45.6382 4.19262 54.5322 62.6734 1.8649 4.89282 47.2532 6.39696 51.9701
59.9696 3.81171 3.87235 48.2532 6.72336 56.6987 61.1948 55.5037 6.4349 49.5693
57.3707 45.5189 45.1209 52.0778 46.9406 46.5519 47.58 3.73563 53.8471 59.4204
46.1346 48.396 48.8492 57.7165 -3.96088 60.6138 -2.6035 60.4921 -1.07454 0.723167
1.82236 1.13611 60.0779 49.0594 51.8302 43.8618 47.5644 45.9393 54.2881 59.2835
55.1765 57.532 3.42592 -2.88819 45.0204 49.4465 52.9809 55.6054 58.1238 43.6175
0.933159 51.3303 43.6647 49.554 -4.48861 -5.52916 -4.15026 -6.82117 45.2013 4.34091
-6.28952 55.621 44.685 45.8175 56.7209 45.3061 -6.31965 44.1798 6.57879 46.4507
46.8415 57.4836 52.9853 57.3552 7.3501 51.9868 53.6004 56.9729 46.9466 49.403
43.4631 42.7003 -14.4432 46.0348 2.70296 55.1779 50.6501 56.3058 43.2943 53.7979
47.244 -12.7695 -8.89657 44.4713 -8.02723 55.3611 -8.94811 42.1727 -0.108332 -10.169
49.0369 42.7881 7.38454 42.1877 47.3363 53.5804 45.2713 50.8898 51.6195 11.8174
54.2192 43.5546 43.0288 44.096 -15.7517 49.834 51.9888 44.3327 13.4123 -23.0989
42.473 44.6066 54.6916 41.7091 54.5605 41.2498 47.2298 54.2114 48.4968 45.004
13.0134 42.9709 52.9394 51.9767 42.0728 41.6654 53.6464 -14.2133 45.2509 -12.204
-20.0782 40.5817 49.7111 -13.0287 52.861 41.0857 43.1567 48.9014 -13.9689 46.9462
50.2062 31.4429 51.5825 40.6755 45.335 17.8881 47.8163 33.6182 42.3511 50.3699
51.9149 34.3018 -7.25095 41.9647 41.3754 39.9526 41.4441 42.4541 -35.8979 41.345
39.7853 42.8847 52.1835 46.5022 45.2562 52.0413 40.8326 40.2146 50.1876 51.7063
50.84 43.2175 47.8814 48.4782 40.1076 51.2201 47.0244 39.0733 48.774 39.1662
43.4263 45.0224 -17.3682 60.7403 -35.6643 -21.1475 -17.6599 50.5699 -18.0285 49.6783
45.9267 39.5895 39.2227 48.7714 -30.4004 43.502 38.9818 38.3356 49.7802 -18.7673
38.6445 38.4048 38.1558 40.4284 44.6536 46.8421 39.9236 40.883 46.1676 48.4614
47.2342 43.4352 41.2687 -48.7613 49.8796 38.0931 79.9394 49.7288 39.329 48.8778
60.897 45.2882 49.4025 41.5615 47.3784 87.157 37.4451 37.6682 38.653 37.3709
80.7986 48.9742 37.2242 86.8862 41.7442 43.2367 44.1917 36.9369 47.8812 -70.3606
47.2122 48.4338 37.8607 -21.8273 -21.4746 96.2786 -22.262 36.8584 41.8036 45.2928
45.8012 34.9876 -26.1121 36.4218 47.7612 44.6134 46.0243 37.0855 -79.6389 42.9601
34.5847 -34.5726 46.8196 -77.0349 38.9558 38.4719 39.383 41.7466 35.4378 43.6798
-78.2635 46.0098 37.9235 39.7423 47.7583 34.2704 47.0006 35.5701 35.926 47.6599
36.3223 47.3221 40.0072 -46.5158 37.2824 35.2682 110.546 46.9851 42.6311 41.6047
44.3299 45.7531 40.1691 107.301 43.9233 46.1426 44.8018 36.5629 46.5595 31.1609
35.4637 34.9029 43.051 -60.6129 44.767 40.2158 -22.9281 31.045 -23.5074 33.4707
35.8232 33.9264 46.2435 41.404 -23.5969 45.2347 42.2569 33.9209 31.3277 -25.5196
44.7315 -67.3597 40.1894 34.5216 37.5362 37.0728 37.9497 -66.9601 45.3867 35.0297
-31.4776 36.5539 38.316 45.6004 33.7519 45.5535 -66.2555 43.1541 43.4966 45.3761
35.9659 38.5524 42.4584 41.0753 43.7354 44.2666 40.1344 45.0896 -38.8202 44.8074
35.3061 38.7053 33.5056 41.8166 31.7849 34.1481 30.4361 43.7248 44.7103 32.2985
34.5954 38.7601 32.4146 -49.6279 40.0266 40.7152 -23.0013 43.813 43.4183 -23.4883
33.2224 42.0666 -22.9324 25.2292 38.7376 32.3614 -57.7293 33.7887 36.1759 -23.5233
35.7294 36.6195 40.9753 25.5511 42.4354 -58.8403 35.2308 37 43.6895 43.9133
29.1015 39.8656 30.4084 -28.1416 -58.4538 43.6824 43.0812 34.6697 37.4621 26.7246
38.6626 32.2189 30.9132 32.9199 43.644 34.0447 37.4698 -33.6654 31.0769 43.0695
33.3558 39.2788 37.6886 38.5085 42.0318 32.012 21.3693 -42.3686 31.0856 -22.779
28.4184 21.9736 26.5222 -23.3036 32.5931 37.5106 29.2731 -22.775 41.9588 -49.4593
34.8657 34.4583 35.2503 23.3825 29.6859 -22.7436 33.9816 35.4806 -50.4342 31.0102
31.7495 37.5248 -50.0589 33.4376 -26.0259 29.8564 39.4538 40.0647 32.8316 -29.785
19.7053 30.8527 26.3621 37.1694 27.5092 32.1588 29.8964 24.318 40.77 28.1755
38.2619 20.3276 40.0289 -35.6657 28.5471 31.4304 21.6644 -22.1717 -22.5522 -41.2593
29.8586 -22.0464 33.7713 33.5056 34.2079 28.7276 40.3691 32.913 34.3076 -42.2482
-21.6162 30.5803 40.2744 -41.7683 32.5045 25.6256 24.1728 26.5427 -23.7387 31.78
34.7044 21.9987 36.6139 27.1247 28.7888 39.3852 39.8895 29.6881 -26.2092 31.247
27.482 37.9016 -29.9018 30.3135 34.8112 37.1114 28.7509 38.1617 17.442 39.1704
27.6725 -21.5069 23.7034 24.8576 -21.7083 -34.2318 21.9557 18.115 25.6178 -21.112
-35.1681 29.4612 -20.2903 -34.5493 19.5552 26.1246 27.7393 -21.4674 35.8558 37.8657
28.5661 26.4654 34.6466 38.2197 -23.1113 23.1959 21.9687 24.0918 15.7122 26.6614
-25.3336 20.1182 28.9178 27.6603 24.7135 16.5124 -28.43 -20.9401 25.1598 -21.0168
17.9076 31.3254 28.33 -20.3898 -29.0736 37.7038 30.4829 31.9427 35.8242 36.2882
-28.3541 -19.345 37.5986 26.6998 34.2395 37.0947 25.4854 -19.8775 22.5631 21.6204
29.3997 32.3364 27.5198 20.4424 23.2904 37.2517 34.9118 36.2826 -20.9162 15.6039
18.8252 23.8286 25.6558 16.2457 26.651 -22.1095 28.0022 32.4761 24.2356 17.2891
36.6661 -24.1288 -20.5679 21.0569 -20.5734 27.4719 -24.3426 20.1373 21.8376 -19.9816
24.5339 33.6265 25.7111 -23.5836 35.8155 22.4739 19.0457 -18.9085 -19.155 22.9637
26.6267 32.3763 17.6689 35.9163 -19.766 34.4813 24.6901 23.3374 25.8938 33.881
34.7037 -20.3904 19.627 20.3948 18.7752 21.0708 -21.7255 16.4745 21.6471 17.8159
-21.4614 23.6145 16.8112 -20.402 29.1228 24.8521 -20.3786 32.0527 -20.6577 34.9984
-19.8531 35.2955 22.1018 28.3289 29.7503 32.8778 34.4732 17.1232 35.198 -18.8578
-19.076 27.3214 30.2004 19.0149 34.8915 19.6755 23.9524 18.3118 22.4332 -19.5652
17.6531 20.2808 -19.5548 17.1451 -19.8823 17.0562 20.816 26.0795 30.3499 34.4056
-19.6701 17.3186 22.6945 -18.9688 31.5844 33.9324 21.2182 32.8087 17.3011 33.1573
-20.3803 -20.3593 18.3201 17.6982 -19.9264 18.9271 17.1325 -19.072 24.6022 30.299
32.0582 33.1605 19.4912 16.7734 33.8164 -19.3692 21.5444 -20.2161 16.8004 19.9828
17.4306 -20.4597 17.3934 21.4695 16.9799 -20.2445 17.0777 17.5807 20.3473 16.4433
31.0381 32.8034 18.1687 22.8723 30.0589 16.0858 33.0499 -20.1981 27.0804 -20.4727
18.7061 -20.4783 16.0689 33.1305 26.3161 27.7428 -20.1482 -19.5962 33.044 -19.4517
-18.9135 20.6305 16.2808 -19.7617 25.3752 28.2717 19.1476 31.7472 32.7867 -20.8867
31.1024 16.2116 15.6687 31.7723 16.8165 15.2724 -21.6199 17.4004 20.7917 24.1909
28.772 15.1534 29.6772 19.5242 32.1612 32.3882 -21.7154 15.3267 17.9106 17.5078
30.4274 31.7336 -21.5053 17.2229 -20.8203 -20.6601 -20.7134 -20.159 19.9428 -20.4848
22.7754 28.5433 16.2303 14.8577 -19.9209 18.3626 15.4245 14.4094 31.9738 16.0446
-20.175 14.174 -21.2392 16.6171 14.3195 -21.9618 18.8172 29.2015 31.185 14.7588
18.0459 17.1409 -22.0339 21.1229 28.5861 30.2401 30.6118 17.4841 31.5806 14.0459
13.5291 -22.197 14.6477 13.1702 16.1784 -21.9637 15.2774 25.2087 -20.9248 17.768
29.7311 13.0992 -21.4834 -21.022 30.6174 31.1682 25.7849 24.4873 -20.8812 31.0941
-20.4544 13.4934 15.8567 -20.7634 26.0929 23.5767 30.8791 -21.9078 14.4727 19.2583
28.0444 30.6049 12.6612 -22.9648 13.2503 16.4645 28.6854 12.1769 30.302 17.2804
22.4399 13.8881 30.5339 11.9047 16.6774 -23.6047 11.9912 15.4904 14.5363 -24.1422
-24.0017 12.6305 -23.6009 -21.2116 -21.3364 21.1019 15.2737 -21.2738 30.1594 -21.0102
11.8151 11.2208 12.4687 -21.4974 28.6019 13.763 29.1899 10.7826 17.1913 27.7673
29.903 -22.881 13.1308 10.6057 16.2657 -24.4535 15.6452 10.8228 13.7698 19.4803
14.4158 -25.8489 11.5867 -26.8913 10.3159 -27.032 11.0014 9.73943 -26.8188 23.632
11.6919 -21.3541 9.35453 -21.5146 29.3827 24.3093 23.1465 -21.5497 29.3189 12.5009
-21.4475 9.23801 12.3901 24.4191 22.0468 -22.0986 14.8971 27.0079 28.7661 29.1329
17.6788 -23.6838 9.52162 12.7005 -25.6669 21.1384 9.47938 28.8316 8.78931 10.0621
10.2281 8.22127 -27.7287 7.83316 10.9538 -29.403 15.1659 -30.1526 14.2381 7.72542
-30.3076 24.8046 19.5181 -21.2732 11.6515 11.995 28.4729 -21.4807 -21.6152 15.715
-21.6256 7.98281 -22.3382 7.92814 12.2503 8.71037 7.20516 -23.9999 9.50089 6.59027
8.5706 -26.1613 17.9458 6.16275 10.2886 11.8379 -28.4663 5.98413 10.8571 11.1227
-30.2603 9.03786 -31.2842 -31.6865 26.5914 7.13994 6.2956 13.5442 -20.988 6.03814
-21.2211 27.7507 7.99611 5.50288 -21.411 27.6957 -21.4801 4.82821 24.6081 16.203
8.85849 27.3442 -22.1653 27.5356 6.32483 4.30433 -23.7627 9.74396 25.6718 26.6648
-25.7785 5.70093 27.2775 3.84171 4.97484 -27.6582 5.48486 6.41807 4.08896 4.55665
3.69786 7.35889 -28.6903 3.29798 -29.1618 17.5799 14.3471 -29.4166 2.92112 27.001
11.1587 8.3977 -20.4865 -20.7181 -20.916 2.14872 -20.9945 1.8791 -21.589 -23.0039
4.77125 3.74056 1.20113 16.454 2.73916 5.78557 -24.6143 1.77018 6.83607 -25.6849
-0.535866 0.783654 12.3084 23.9912 25.9869 -25.6631 -25.2663 -25.175 -2.95949 -0.336611
20.3234 -19.7764 -3.18531 -19.989 26.2533 8.55491 14.8841 3.04401 -20.1565 26.2054
1.92443 -2.99745 4.16325 -20.1972 0.818752 21.2778 18.7692 -1.84926 5.33948 -20.6688
26.066 -0.332417 -21.8917 -23.0603 25.8404 -1.61258 -4.44061 -23.3599 10.0397 1.23544
13.1449 -3.14114 -8.22958 2.44348 -22.5439 0.029589 -8.32589 -21.5225 21.7158 3.55734
16.4317 24.2186 24.6756 25.5725 -21.1745 -1.23711 -8.07313 -18.9028 -19.0814 -5.21628
-19.1879 -2.63492 -19.1743 5.72443 -19.5369 -20.6505 -4.25521 15.3662 -8.16752 -21.5222
-0.628069 0.661183 1.90821 11.2133 -1.97246 -6.27417 -21.3038 2.689 -14.3466 -14.0412
-3.44757 7.5691 23.0823 -20.0414 24.4503 -18.6991 -12.884 -18.2264 -8.99154 -5.10658
21.7118 13.8004 24.7099 -17.8914 -18.0352 24.8747 -18.0783 24.8329 -18.0338 -7.09098
-1.1548 0.18526 -18.3271 -2.56481 24.7113 -13.0797 1.42674 -19.3718 -4.09318 2.54819
-20.1833 -9.65616 9.06439 24.5146 -5.77169 -17.4757 -19.684 12.2928 -16.1775 -15.742
-7.68908 -13.4018 4.90236 24.3026 -3.03257 -1.56688 -0.185827 -4.59846 -10.0421 -16.7664
-16.888 -23.2114 1.13966 -16.8908 -6.28501 -16.8613 -22.0383 -17.135 -19.0324 -13.1164
-18.0447 -8.16649 10.3143 21.3506 23.6451 -18.8938 6.75086 -10.3682 -18.5538 -3.37175
22.6968 -4.97995 -1.86807 -17.7023 -0.43538 -16.8358 -6.67345 -13.0484 -27.3742 -8.52889
-15.0186 -25.9236 17.5661 2.06792 -13.7842 21.9839 -15.5591 22.8281 -15.6877 23.6019
-13.3235 -15.6903 23.5651 -23.2295 -10.6395 -15.6986 -16.4988 18.5277 -15.9995 16.0861
23.4579 8.38361 -16.7326 -5.23219 -3.60651 -6.96175 -2.04394 -13.1053 -17.5513 23.2838
4.22866 -21.0255 -8.78855 -17.4149 -16.0716 -15.9055 -10.8302 -28.4791 19.0417 14.0844
23.0767 -13.8801 -27.2736 -12.5491 -13.1408 -25.1306 -12.0956 -19.6835 -5.39119 -14.3057
-14.4694 -7.1251 -3.75646 -14.4998 -14.5314 -8.95723 5.94937 20.7199 -14.8865 -15.8221
22.4148 -0.901974 -15.5119 -10.9463 -23.9526 -16.2727 -13.1402 -18.9675 -16.1386 1.56719
-14.2446 -7.19036 -5.47147 -15.5939 19.1713 11.5505 -9.04348 22.4033 -12.0843 -22.6509
-10.9926 -10.9992 -10.616 -13.0366 22.4236 -13.2365 -18.393 -13.2949 22.3912 -13.0975
-13.3373 -29.8177 -13.7493 3.64081 22.2966 -28.6817 -14.3662 -15.3993 -26.6317 -21.5158
-15.1061 -7.30725 -9.02419 22.1434 -14.963 -10.985 -3.99301 20.7874 21.181 -17.9445
-12.8813 -13.0176 -25.105 21.9776 -10.5334 -1.1734 -9.39548 -20.7339 -15.2067 -9.0176
4.83498 -30.2925 -11.7328 -11.961 -12.0487 -29.2136 18.9942 8.4516 21.5587 -12.1024
-17.5917 -8.98398 -7.62759 -12.5612 -27.7208 -10.8711 -23.6936 -13.2483 1.18372 -12.8995
19.904 21.0887 -13.9949 -20.1607 -14.9952 -13.7743 -26.662 -11.6036 -17.265 -22.8572
-9.1598 -29.7418 -8.91132 -7.94014 -10.7067 -7.28532 -7.54793 3.12815 -29.1492 -12.6898
-19.6883 15.2437 -10.3686 21.3302 -10.6134 -28.4202 -3.98682 -10.7316 -25.5607 -14.752
21.3014 -10.8002 -11.2991 16.1589 13.8159 21.2172 -22.2341 -12.0848 -16.9355 -12.8505
-1.31749 21.0803 -28.2251 -12.5265 -19.2524 -10.4927 -8.77542 -24.7982 -12.417 -10.334
-14.4741 16.7088 11.9661 4.64916 18.5781 20.5646 20.9173 -7.94018 -21.6752 -6.74186
-16.5964 -6.36976 -27.4489 0.939823 -8.93386 -9.18089 -9.32744 -18.8213 -24.167 -9.43662
-9.97194 -30.5128 -10.2566 -10.8082 19.5576 -12.1049 -21.1525 -30.1753 -14.1127 -6.83142
-11.5894 -26.6203 -29.7803 -16.2285 -11.2057 -23.5688 16.9333 9.72411 -3.87449 -9.01091
18.9756 19.7157 20.3818 -18.3887 2.83423 -6.65093 -29.3762 -5.43915 -20.6396 -5.06466
-26.023 -11.8396 -13.7164 -7.41032 20.3135 -7.6519 -1.34164 -7.82948 20.2878 -32.3066
-15.7797 -8.02019 -22.9886 -31.9281 -8.60212 20.2129 -17.9415 -9.43003 -31.5719 -28.4691
-10.204 20.0912 -20.1174 -25.4194 -9.79808 -7.63786 0.808781 17.9867 -31.206 19.4744
-13.345 -9.67207 -22.4031 19.9591 -5.35687 -15.3023 -27.9176 -4.17331 7.05462 16.8932
19.7025 -17.4158 -6.47145 -3.80913 -24.7903 -34.4781 -5.77761 -6.01326 -19.5717 -6.22223
-34.1534 -6.50179 -30.511 -7.14355 -33.7076 -3.68215 -7.95774 -21.801 -27.2981 -8.70703
-14.9174 -8.27408 -16.8491 -24.1403 -33.3934 -6.15254 -19.0036 -29.9607 -3.95336 -1.30301
-2.78076 -26.6008 -21.1864 -2.40793 -37.2135 -36.9768 13.236 -3.97659 19.3662 -4.20652
-32.8618 -4.44104 -23.4639 -36.4465 19.3431 -12.4617 -4.78618 -29.2551 -5.4833 -16.3375
14.4604 -9.04436 11.8855 17.9898 18.3386 19.2759 -6.29947 -18.3618 -7.00117 3.98345
16.6455 -25.8725 18.8918 19.1663 -20.5436 -6.0598 -6.51396 -36.4798 -32.2155 -4.42769
-22.771 -28.4593 14.7445 10.1825 19.0358 -2.30892 -1.14105 -3.47182 17.2785 -0.750741
18.3273 -25.1118 -17.8492 -35.8628 -31.3376 -1.97159 -2.19574 -19.8222 -2.4468 -2.81859
-3.52315 -27.6274 -22.0532 -4.32124 -43.1868 -4.93447 -42.5008 -34.7075 -4.37488 -24.322
-40.682 15.2963 8.21991 18.6038 -30.3987 -15.1371 -11.5452 -2.41987 -0.539025 -19.2138
-8.38692 -26.7547 0.474232 -39.3291 -21.2494 0.817514 -33.591 -5.7147 0.260687 -23.5036
0.0464046 18.4821 -29.4293 -0.198062 18.4614 -0.544589 -47.6138 0.586459 16.2305 17.9903
-1.18654 18.4012 -46.7116 -1.92018 -37.4876 -25.8539 -44.9051 -2.40658 -18.6895 -32.4717
18.3031 -1.73185 -20.4667 0.125234 -28.4243 -22.6619 5.94815 15.0963 18.0512 1.84216
18.1963 -42.7366 2.78859 -36.0882 3.12096 -24.9505 -31.3112 -13.9481 16.9872 -17.7769
-10.6342 2.79407 2.59562 -51.7837 2.37696 2.08719 -19.6758 -27.4045 -50.7143 1.56009
-40.6061 0.955624 -21.7537 -48.5756 -7.87837 -34.6941 16.4982 17.1589 0.647616 -30.139
-24.0316 1.51556 3.47304 -46.3722 -38.8337 -26.3946 5.30525 6.42241 -33.2723 -19.0085
6.84161 -20.8465 -28.9745 -56.8932 -23.0293 11.1009 3.33196 15.2034 -55.4908 5.64046
5.45991 17.3843 17.6556 5.27774 -43.9971 17.6369 5.06785 -37.0302 -52.704 4.69544
10.1489 -2.99433 15.7041 17.0286 17.5825 -25.3799 4.29744 -31.8837 4.22547 -16.1925
-12.8029 17.4937 5.2657 -27.8297 -20.0502 7.29659 -9.80943 -41.72 -50.7935 -35.2791
9.18935 8.71952 -22.0368 17.3877 10.3768 -30.5315 10.8296 -24.2853 -7.56032 -47.8958
-39.4168 -26.6988 8.79098 8.62714 8.49193 8.37965 -33.6251 8.16946 7.99637 -21.2855
8.15235 -29.2079 -62.852 9.25631 7.03369 -44.7164 17.0348 -60.9797 -23.2016 -37.2975
11.1611 -56.5961 -25.5051 12.8715 -32.0438 0.465018 14.697 13.9304 16.6341 -14.8217
14.3393 -18.2784 -11.7196 15.6835 -52.161 15.9961 -27.9139 -41.8435 -35.3538 12.2751
12.1251 16.8819 -22.2706 12.0365 -9.00886 16.865 12.0232 11.9625 -30.5321 -66.795
16.816 11.9756 -24.321 -64.7082 12.2981 -47.7377 -39.3461 -60.7639 13.424 16.7359
-26.6582 -6.65967 5.08399 15.0938 16.036 16.5804 -33.5397 15.2235 16.8379 16.6485
17.9001 -29.1109 -55.7964 18.3374 -44.2841 -23.4273 -37.0807 -31.8489 -25.3778 16.0916
15.953 15.9139 -72.1 16.0101 16.1008 -69.3685 -16.677 -13.5223 16.2752 -50.5856
-41.3619 -27.7529 16.7297 -64.3255 -35.0135 -20.1885 -10.6829 17.8959 19.6999 -30.2835
21.3608 -2.49347 14.5009 15.8244 -24.2818 -8.34988 -46.6029 22.55 -58.7603 -38.7364
23.0717 2.83021 16.0272 -26.3797 -33.1258 20.2133 20.0853 -74.8595 9.78862 20.1039
16.1565 -28.7999 20.3268 16.1412 -53.0278 -43.2038 20.5758 -71.8464 8.95091 20.9034
16.0967 -36.3919 21.4657 -66.4721 -31.3933 22.6398 16.0237 -25.3414 24.3844 25.9698
-48.5622 -40.2043 -15.1892 7.58473 11.2701 14.8594 15.9367 -27.3167 -60.7205 27.1222
-18.3511 -12.3074 -34.2825 27.6402 -21.8792 -29.769 -9.79876 14.4424 15.0357 -75.7727
24.6366 -44.7196 24.5194 24.6 -54.7407 -37.581 24.9583 -72.6274 25.3604 25.8173
-32.3535 -26.0314 -67.2535 26.4516 0.40987 6.25462 15.399 15.6451 27.5664 29.1064
-28.1497 -49.9703 -41.3995 30.3997 -35.2485 -61.6176 31.2673 31.6505 -5.37738 13.8402
-30.5677 14.9792 -24.7245 -45.8456 -38.5519 -76.0278 -55.6318 29.3337 29.2381 -16.6829
-13.8146 -26.6654 29.398 15.4756 -33.1515 29.896 -72.6617 15.4617 30.4408 -19.8189
-11.4205 31.0036 15.4213 -67.2194 31.6953 -28.9053 4.34236 11.8564 15.268 32.7617
15.3552 -42.3284 -50.8041 -36.0571 34.1216 -23.4136 35.1502 -61.7573 -31.2755 15.2829
35.7838 -25.2569 36.0662 -46.569 -39.3229 -73.543 -27.2933 -33.8484 -55.8458 -70.5511
34.2538 34.1971 34.469 35.1238 -2.04796 -29.555 14.7142 35.8215 -66.0495 36.4934
-24.1785 -42.9493 37.2843 -36.7078 -51.13 38.4306 -31.8892 -15.1622 39.739 -25.8134
-61.6811 -17.981 40.5525 -12.6704 2.43748 13.7627 14.0468 14.8055 41.1419 -27.8718
41.4708 -21.056 -39.8445 -46.8809 -34.4083 -55.8686 -30.1015 39.2956 39.3431 39.7952
-24.6001 -8.0551 13.4721 14.1179 14.8355 40.6315 14.8229 41.5113 -43.2111 -37.1416
14.786 42.2809 -69.5416 -51.1517 -26.3369 -32.3697 43.1794 -66.283 14.7255 44.5396
46.0145 45.7583 46.7355 -28.3643 -61.5455 47.11 -40.06 14.6532 -46.8044 -34.7707
-55.8714 -30.5131 -25.2406 -16.3207 -14.0569 44.3501 44.5241 0.360312 11.8476 14.2762
-19.0664 45.2295 -43.1054 -64.5289 -37.3135 46.3326 -26.7729 -50.6856 -4.44648 -32.6731
47.4099 13.9923 -61.386 48.2794 14.41 -22.0463 49.1798 -28.7242 -57.8069 50.764
-39.9597 -46.2319 -34.9092 -54.6324 -30.7695 -25.4801 -59.6818 51.9282 -57.4141 53.2667