# vtk DataFile Version 2.0
sampleSurface
ASCII
DATASET POLYDATA
POINTS 29622 float
-0.000626264 0.02 0 -0.000711655 0.02 0.0141674 0.0147896 0.02 0 -0.0159899 0.02
0 -0.00116012 0.02 0.0180502 -0.0155282 0.02 0.0128408 0.0125134 0.02 0.0160665
-0.00153405 0.02 0.0212859 -0.0157761 0.02 0.0167357 0.0119059 0.02 0.0199308 -0.0159829
0.02 0.0199816 0.0113994 0.02 0.0231511 0.0307112 0.02 0 -0.03158 0.02
0 -0.0313963 0.02 0.0122895 0.0322044 0.02 0.0100037 -0.0314347 0.02 0.0161643
-0.0314668 0.02 0.0193933 0.035056 0.02 0.01626 0.0338862 0.02 0.0221196 0.0329105
0.02 0.0270048 0.046561 0.02 0 -0.04742 0.02 0 0.0479306 0.02
0.0101734 -0.0474942 0.02 0.0127772 -0.0473299 0.02 0.0165239 -0.0471929 0.02 0.0196463
0.00924481 0.02 0.0516915 0.0494094 0.02 0.0183313 -0.0134021 0.02 0.0516237 0.0480848
0.02 0.0247778 0.00925064 0.02 0.0544086 0.0469797 0.02 0.0301574 -0.0134578 0.02
0.0549233 -0.0260141 0.02 0.0516224 0.00925771 0.02 0.0576651 0.0285421 0.02 0.0517212
-0.0335024 0.02 0.0503979 -0.0262833 0.02 0.0549314 0.0285517 0.02 0.0551565 -0.0338111
0.02 0.0524296 0.0624323 0.02 0 -0.0635513 0.02 0 0.0631854 0.02
0.0123018 -0.0341816 0.02 0.0548694 -0.0631422 0.02 0.0145995 -0.0627523 0.02 0.0179257
-0.0624271 0.02 0.0206975 0.0285632 0.02 0.0592835 -0.00839835 0.02 0.0658926 0.063721
0.02 0.0227067 -0.0482842 0.02 0.0478235 0.00967915 0.02 0.067425 0.0458271 0.02
0.0517467 -0.0226337 0.02 0.0654011 0.0630239 0.02 0.028683 -0.0486978 0.02 0.0509764
0.062443 0.02 0.0336742 0.0458203 0.02 0.055416 0.026845 0.02 0.0680903 -0.0491941
0.02 0.054759 -0.035021 0.02 0.0649161 0.0458122 0.02 0.0598276 -0.0191597 0.02
0.0732754 -0.00311666 0.02 0.077051 -0.00255422 0.02 0.0782358 0.0784938 0.02 0
0.00194428 0.02 0.0786012 -0.0636358 0.02 0.0466853 -0.0173222 0.02 0.0775525 -0.0765921
0.02 0.0224313 -0.00232999 0.02 0.0798271 -0.0772697 0.02 0.0204922 0.0788037 0.02
0.0139438 -0.0780823 0.02 0.0181648 -0.0802538 0.02 0 0.0124228 0.02 0.0794745
0.0621102 0.02 0.0517893 -0.0640599 0.02 0.0501172 0.044288 0.02 0.0683138 -0.0503008
0.02 0.0642321 0.07854 0.02 0.0258466 0.0621029 0.02 0.0552551 -0.0333233 0.02
0.0767836 -0.0333103 0.02 0.0768858 -0.0334615 0.02 0.0768769 -0.0332875 0.02 0.077004
0.0784374 0.02 0.0301441 0.0269021 0.02 0.0796185 -0.0645673 0.02 0.0542281 -0.0167508
0.02 0.0829226 0.0783517 0.02 0.0337218 0.0620941 0.02 0.059424 0.0435428 0.02
0.078852 -0.0787026 0.02 0.044501 -0.0656735 0.02 0.063512 0.0609156 0.02 0.0687538
-0.0521327 0.02 0.0759212 -0.0794839 0.02 0.0479436 0.0779046 0.02 0.0518514 0.0948037
0.02 0 -0.0158667 0.02 0.0942564 -0.000383487 0.02 0.0955942 -0.0804181 0.02
0.0520697 0.0951817 0.02 0.0152146 0.0779126 0.02 0.0570228 -0.0980541 0.02 0
0.0937075 0.02 0.0295273 0.0934653 0.02 0.0318318 0.0932639 0.02 0.033747 -0.0307605
0.02 0.0947054 0.0142616 0.02 0.0986948 0.0597441 0.02 0.0801689 -0.0909562 0.02
0.0419181 -0.0668854 0.02 0.075392 -0.0998412 0.02 0.016911 -0.0922551 0.02 0.0437855
0.0168196 0.02 0.100996 0.0269517 0.02 0.0992279 0.0450617 0.02 0.09251 0.07753
0.02 0.0682577 -0.0817634 0.02 0.0636401 -0.0938102 0.02 0.0460256 -0.0998281 0.02
0.0335224 0.0926972 0.02 0.0518158 -0.0507033 0.02 0.0933516 -0.00118864 0.02 0.107376
-0.0198713 0.02 0.105984 0.0930811 0.02 0.0549867 0.0322709 0.02 0.103383 -0.0471823
0.02 0.0993111 0.0611389 0.02 0.0920601 0.0757902 0.02 0.0815793 0.111368 0.02
0 -0.0819878 0.02 0.0758654 0.106626 0.02 0.033755 0.111677 0.02 0.015575
-0.0512522 0.02 0.100983 -0.0693622 0.02 0.0901735 0.0443505 0.02 0.105441 -0.114433
0.02 0 0.0941685 0.02 0.0681304 -0.098111 0.02 0.0626988 -0.115406 0.02
0.0159041 0.106639 0.02 0.0514943 0.077111 0.02 0.092559 0.062589 0.02 0.103095
-0.116732 0.02 0.0309014 -0.11361 0.02 0.0456422 -0.0830293 0.02 0.0904377 0.0620976
0.02 0.106128 0.0917701 0.02 0.0824748 -0.0692362 0.02 0.103597 -0.0157512 0.02
0.123653 -0.0981586 0.02 0.0769568 -0.0286459 0.02 0.121586 0.0616911 0.02 0.108642
-0.00135098 0.02 0.126852 0.127678 0.02 0 0.127681 0.02 0.0157497 0.0779179
0.02 0.103318 0.110542 0.02 0.067339 -0.129878 0.02 0 0.0135636 0.02
0.129698 -0.115046 0.02 0.0624473 -0.13025 0.02 0.0155149 0.0926218 0.02 0.0929193
0.127607 0.02 0.0317518 -0.0512544 0.02 0.12196 0.0769845 0.02 0.107826 -0.0979274
0.02 0.0912246 -0.130467 0.02 0.0307187 -0.0830669 0.02 0.105459 0.108343 0.02
0.0804684 0.076205 0.02 0.111591 0.033156 0.02 0.131508 0.0291973 0.02 0.132459
0.126891 0.02 0.0510967 -0.129316 0.02 0.0457947 -0.114159 0.02 0.077738 -0.0672405
0.02 0.121204 0.0915473 0.02 0.105188 0.0335813 0.02 0.13607 0.125156 0.02
0.064945 -0.12863 0.02 0.0610193 0.0903924 0.02 0.110214 0.108416 0.02 0.0927111
-0.0167998 0.02 0.141976 -0.00122092 0.02 0.143552 0.0443986 0.02 0.136994 0.144241
0.02 0 0.014292 0.02 0.143703 -0.0976212 0.02 0.106426 -0.033047 0.02
0.140708 -0.144999 0.02 0 0.144192 0.02 0.0157437 0.0894279 0.02 0.114412
-0.145097 0.02 0.0153857 -0.0822205 0.02 0.121736 0.123616 0.02 0.079756 -0.114272
0.02 0.0926863 0.14381 0.02 0.0316597 -0.0499473 0.02 0.138659 -0.14504 0.02
0.0306779 0.14253 0.02 0.0481078 0.109841 0.02 0.102812 -0.14452 0.02 0.0459283
-0.130173 0.02 0.0778439 -0.0659231 0.02 0.138019 0.140391 0.02 0.0629309 0.0619994
0.02 0.14141 0.1236 0.02 0.0935311 -0.11262 0.02 0.107019 -0.0971985 0.02
0.122314 -0.144037 0.02 0.0612498 0.0610269 0.02 0.144909 -0.00109627 0.02 0.157281
0.112365 0.02 0.110111 -0.0169303 0.02 0.156556 0.0146763 0.02 0.15714 0.0303439
0.02 0.155927 -0.0330245 0.02 0.155701 0.138275 0.02 0.0797507 -0.129523 0.02
0.0935127 0.111013 0.02 0.115179 -0.160051 0.02 0 -0.0813649 0.02 0.138082
0.0598586 0.02 0.149119 -0.160049 0.02 0.0153647 0.161091 0.02 0 0.161419
0.02 0.0155742 0.109887 0.02 0.119403 -0.0491994 0.02 0.154789 0.124483 0.02
0.104644 0.0457774 0.02 0.156097 -0.143679 0.02 0.076667 -0.159941 0.02 0.0307111
0.0761826 0.02 0.145158 0.161411 0.02 0.0311713 -0.159648 0.02 0.0460564 -0.112328
0.02 0.122769 0.159875 0.02 0.0467547 -0.0650648 0.02 0.154354 0.0747878 0.02
0.150266 0.155991 0.02 0.0621477 -0.0966568 0.02 0.138348 0.137954 0.02 0.0972345
-0.12931 0.02 0.108561 0.125571 0.02 0.113477 -0.159317 0.02 0.0614462 0.124052
0.02 0.118682 0.152113 0.02 0.0801569 -0.000945772 0.02 0.171985 -0.144929 0.02
0.0933401 -0.0168136 0.02 0.171642 0.0148827 0.02 0.171926 0.0731134 0.02 0.156401
0.0602399 0.02 0.161942 0.122788 0.02 0.123016 -0.0806767 0.02 0.154269 0.0306552
0.02 0.171538 -0.0327603 0.02 0.171154 -0.175135 0.02 0 -0.175104 0.02
0.0153837 0.139708 0.02 0.10779 -0.159018 0.02 0.0769012 -0.127584 0.02 0.123127
0.177422 0.02 0 -0.0486967 0.02 0.170677 -0.175002 0.02 0.030773 -0.111953
0.02 0.138634 0.178245 0.02 0.0153881 0.0973805 0.02 0.151095 -0.144169 0.02
0.108886 -0.17481 0.02 0.0461761 0.0450262 0.02 0.175324 0.178976 0.02 0.0308584
0.1534 0.02 0.0975439 -0.0961491 0.02 0.154362 0.0752222 0.02 0.165707 -0.0644954
0.02 0.170392 0.171563 0.02 0.0625428 0.140548 0.02 0.117763 0.164921 0.02
0.0802817 0.177632 0.02 0.0464933 -0.15876 0.02 0.0924223 0.0956442 0.02 0.157102
-0.174576 0.02 0.0616128 0.138848 0.02 0.123066 -0.000797289 0.02 0.187164 0.137431
0.02 0.127484 -0.0166397 0.02 0.186993 0.015021 0.02 0.187152 0.0601932 0.02
0.178304 -0.0801553 0.02 0.170288 -0.127292 0.02 0.138895 0.0935604 0.02 0.164311
0.0308071 0.02 0.187002 -0.0324987 0.02 0.186723 0.109749 0.02 0.154715 -0.14375
0.02 0.124002 0.155561 0.02 0.108915 -0.190287 0.02 0 -0.111575 0.02
0.154522 -0.174341 0.02 0.0770964 -0.190252 0.02 0.0154145 0.192081 0.02 0
-0.0483322 0.02 0.186456 -0.190168 0.02 0.0308401 -0.159337 0.02 0.108678 0.192798
0.02 0.015142 0.107888 0.02 0.160863 0.0757736 0.02 0.179351 0.167558 0.02
0.0992129 -0.0957207 0.02 0.170305 -0.190031 0.02 0.046283 0.193359 0.02 0.0304075
0.186572 0.02 0.0617725 0.0451314 0.02 0.191407 0.154026 0.02 0.122375 -0.0640896
0.02 0.186272 -0.174121 0.02 0.0926298 0.191952 0.02 0.0458818 0.182046 0.02
0.0790949 0.105655 0.02 0.168241 0.152267 0.02 0.127652 -0.142678 0.02 0.139122
-0.18986 0.02 0.0617532 -0.126999 0.02 0.154697 0.150801 0.02 0.132046 0.123413
0.02 0.158982 -0.158909 0.02 0.124147 0.0908508 0.02 0.18095 0.0605345 0.02
0.193218 -0.0797642 0.02 0.186185 -0.000663263 0.02 0.202576 0.0151311 0.02 0.202574
-0.0164706 0.02 0.202486 0.170746 0.02 0.110267 -0.111233 0.02 0.170387 -0.189679
0.02 0.0772585 0.0309089 0.02 0.2025 -0.0322747 0.02 0.202338 0.121458 0.02
0.165139 -0.17406 0.02 0.108309 0.205076 0.02 0 -0.205512 0.02 0
0.205099 0.02 0.0148235 -0.205481 0.02 0.0154458 0.204553 0.02 0.0297533 0.202511
0.02 0.0448143 0.183105 0.02 0.0976458 0.198739 0.02 0.0600511 -0.205415 0.02
0.0309025 -0.048054 0.02 0.202184 -0.0953731 0.02 0.186175 0.0756224 0.02 0.195474
0.119113 0.02 0.172531 0.105845 0.02 0.18174 -0.14244 0.02 0.154866 -0.205314
0.02 0.0463754 -0.1581 0.02 0.139316 -0.189501 0.02 0.0928015 0.172722 0.02
0.121629 0.19693 0.02 0.0767081 0.0454421 0.02 0.206433 -0.0637857 0.02 0.202068
-0.126725 0.02 0.170499 -0.174089 0.02 0.124038 -0.205187 0.02 0.0618705 0.0911397
0.02 0.195716 0.186009 0.02 0.110685 -0.11094 0.02 0.186215 0.0608037 0.02
0.208112 -0.0794642 0.02 0.202003 0.215224 0.02 0.0290984 0.216771 0.02 0.014522
0.213014 0.02 0.0437438 0.217464 0.02 0 -0.000546128 0.02 0.218103 0.175966
0.02 0.129296 0.210501 0.02 0.058189 -0.189708 0.02 0.108537 0.0152247 0.02
0.218099 -0.0163223 0.02 0.218056 -0.205048 0.02 0.0773926 0.121368 0.02 0.182669
0.199005 0.02 0.094086 0.0309877 0.02 0.218051 0.174226 0.02 0.134816 -0.0320902
0.02 0.217975 0.145063 0.02 0.165918 -0.220807 0.02 0 -0.157901 0.02
0.155021 -0.220782 0.02 0.0154737 0.172775 0.02 0.139418 -0.142217 0.02 0.170619
-0.173549 0.02 0.139484 -0.220731 0.02 0.0309567 -0.0478372 0.02 0.217886 -0.0950965
0.02 0.201986 0.106373 0.02 0.196425 0.0758406 0.02 0.210351 0.210947 0.02
0.0742626 0.143041 0.02 0.172076 0.188169 0.02 0.123332 -0.204906 0.02 0.0929435
-0.126482 0.02 0.186284 -0.220655 0.02 0.0464532 0.0457602 0.02 0.221204 -0.18917
[...]
POINT_DATA 29622
FIELD attributes 1
U 3 29622 float
20 0 0 23.9792 1.5923 -0.300272 20 0 0 20 0
0 15.3743 1.83449 -0.222196 26.0242 1.02245 -0.191353 21.5673 2.34187 -0.540541
0 0 0 21.4566 1.17993 -0.110193 8.85828 3.12503 -0.333773 0
0 0 0 0 0 20 0 0 20 0
0 26.5221 0.598284 -0.491796 23.9581 2.57268 -0.79658 23.9071 0.645465 -0.490183
0 0 0 16.3959 3.79639 -0.735221 2.65951 4.52542 -0.379689 0
0 0 20 0 0 20 0 0 22.184 2.9448
-0.73724 26.6923 0.439499 -1.33512 24.806 0.42475 -1.30863 0 0 0
0 0 0 9.48119 4.06001 -1.00086 0 0 0 -2.54757
3.53147 -0.889104 17.1653 0.0154492 0.161892 0 0 0 13.8744 -0.274471
0.250893 0 0 0 19.8833 0.139702 -0.114015 0 0 0
0 0 0 13.8319 -0.374119 1.0323 17.3092 -0.177983 0.039145 14.9999
-0.533951 2.1622 20 0 0 20 0 0 18.9476 3.2735
-0.353723 18.3549 -0.392976 2.1721 25.3481 0.474766 -2.51808 23.341 0.387876 -2.2721
0 0 0 19.9172 -0.0448587 -0.334591 21.2634 -0.714333 0.174471 3.88792
3.44584 -0.423323 0 0 0 21.3819 -0.367927 -0.194585 0 0
0 20.464 -0.689791 1.01042 -5.93596 1.50403 -0.302685 15.1857 -0.319491 2.07164
0 0 0 17.5608 -1.15869 -0.086095 20.9117 -0.571875 -0.515433 18.8812
-0.0560239 1.93517 19.3554 -0.256546 1.71486 20.1552 -1.04945 -0.411352 20.315 -0.867552
0.378269 20.9369 -1.15569 -0.146847 20.9094 -1.21423 -0.165576 20 0 0
20.8796 -1.24833 -0.224123 0 0 0 20.2268 -1.03503 0.0496892 0
0 0 19.0134 -1.11003 -0.165228 18.4605 0.416037 -2.17856 15.3015 2.85378
0.367517 18.6628 0.613812 -2.77188 20 0 0 20.8355 -1.25438 -0.384232
0 0 0 16.2703 -0.227195 2.63812 20.8165 -1.58138 -0.568714 18.3344
0.100306 1.63383 1.09944 1.82145 0.787504 18.0442 -1.75602 0.0975356 19.1871 -0.43989
0.380856 19.1856 -0.441827 0.369022 19.1766 -0.436272 0.371721 19.0642 -0.439649 0.367298
-5.65014 -0.847699 0.875761 20.3418 -1.42802 -0.820137 18.6249 0.0852695 2.01666 14.2071
-0.758581 0.0353154 0 0 0 20.7654 -1.68636 -0.0412422 20.3175 -2.26002
-0.84705 0 0 0 17.6362 0.252409 1.67565 21.3921 -2.04855 -0.20204
18.0655 0.279449 0.743954 16.2466 -0.0239226 4.05125 0 0 0 20
0 0 3.3799 -0.273574 -0.0325804 3.0318 -0.176223 -0.228315 18.0906 0.245811
3.16071 12.6795 1.25409 0.897869 19.2861 -1.49797 0.241936 20 0 0
0.109963 -0.942782 1.16053 -3.87746 -2.67942 1.03445 0 0 0 3.73386
-0.102892 0.061293 2.89849 0.0758569 -0.579402 20.6309 -2.62389 -0.433942 0 0
0 17.3602 0.470992 1.23624 15.5511 0.750838 -2.08258 13.0405 0.225291 4.69502
2.89221 0.183083 -0.629166 6.02764 0.423334 -2.18039 18.673 -1.8242 -2.66299 21.7235
-1.69981 -0.04219 16.9712 0.374095 2.32151 14.2116 0.495212 3.78074 0 0
0 0 0 0 7.98632 0.299191 0.343343 3.03383 0.104545 -0.231238
3.08387 0.148009 0.00716128 18.5715 -1.36221 -0.0444487 2.54799 0.198738 -1.40884 2.9529
0.262832 0.104459 18.5487 -1.94558 -1.14015 20.2907 -2.26346 -0.279061 20 0
0 16.8296 0.460461 1.84685 0 0 0 12.276 -0.121231 1.19697
7.61343 0.781897 0.443521 16.7274 0.985973 0.890722 0 0 0 20
0 0 21.263 -1.53827 -0.410248 16.1352 0.468062 2.91405 15.1053 0.605188
-0.557551 0 0 0 16.9056 -1.57407 -0.0202553 13.8263 0.559472 -0.102386
13.9385 0.710485 0.374637 14.4474 0.649689 2.11046 16.4834 0.626532 1.66719 10.1824
2.02038 1.34943 19.3954 -1.95173 -0.508558 15.8732 1.35878 1.21431 3.12243 0.292743
0.230812 16.3187 0.470748 2.06434 3.34874 0.409891 0.336209 0 0 0
3.0832 0.217142 0.162626 20 0 0 12.1805 -0.429285 1.30373 13.1391
1.22156 1.33911 20.3687 -1.62601 -1.20784 20 0 0 2.77003 0.210252
0.12245 15.648 0.471194 2.29416 15.3837 0.502986 -0.0904888 14.9519 -1.37345 0.309589
5.48451 -2.82816 0.138425 15.22 2.52849 2.46891 10.3592 2.92397 1.94939 16.302
0.527559 1.77919 14.827 0.530691 0.401965 16.1268 0.778545 1.74596 18.5033 -1.90548
-0.95696 0 0 0 0 0 0 2.03213 0.101398 -0.123317
13.0387 -2.77817 -1.77823 15.0285 0.487148 1.10623 16.0482 0.428235 1.82445 15.8536
1.18591 2.01667 11.9172 1.10036 1.8811 2.8828 0.174297 0.832587 19.5432 -1.78803
-1.90603 15.6894 0.411818 1.41612 10.7288 2.94351 2.22013 13.5108 -1.4943 0.163233
16.7343 1.53749 3.10662 16.4207 1.33357 2.84771 0 0 0 20
0 0 15.6107 0.989556 3.06453 16.2619 0.566008 1.73806 16.5505 1.67264
3.52974 20 0 0 12.3062 -0.285466 1.16916 0 0 0
15.6366 0.416803 0.102761 16.1671 0.768833 2.00076 17.3356 -1.86567 -1.30029 16.2347
0.420945 1.65679 6.2311 -2.81002 -0.0381393 16.3442 1.29222 3.06914 15.4548 0.426466
0.409402 12.232 -2.91988 -1.95942 10.9706 -0.110822 1.45381 15.6067 0.396204 0.830165
16.0735 0.370799 1.44748 16.39 0.837553 2.38323 18.7656 -1.71396 -2.23036 0
0 0 12.1861 -1.44386 0.0225527 16.3584 0.421708 1.64029 16.3548 0.536579
1.82003 15.9356 0.354127 1.11064 13.7691 1.07629 3.57077 16.9597 1.03378 2.79363
11.4308 1.20644 2.09504 16.9709 1.0276 2.73938 16.7211 0.95068 3.0744 16.2833
0.692518 3.66553 16.8207 0.957512 2.78146 16.1395 -1.67643 -1.42485 16.3081 0.3501
1.44475 10.1276 2.03385 1.96681 20 0 0 16.4599 0.626617 2.13202
15.3689 0.846576 4.03416 15.9526 0.343786 0.15814 20 0 0 12.831
-0.091613 0.938761 0 0 0 16.678 0.782093 2.61805 10.5914 -0.301558
1.24142 16.2643 0.610025 4.1054 16.2158 0.321217 1.21315 15.8868 0.347232 0.388446
0 0 0 7.84009 -2.40761 -0.187155 15.9967 0.323705 0.658014 16.4969
0.401441 1.67435 12.8769 -2.53203 -1.95752 16.6684 0.610687 2.33681 14.0791 1.28749
3.70994 18.2589 -1.51939 -2.2994 16.5669 0.45868 1.895 11.2164 -1.37771 -0.0078184
16.4757 0.334175 1.46975 11.3273 0.795888 1.88169 16.1944 0.297727 0.873371 9.6415
1.27807 1.81701 15.2241 -1.55098 -1.44235 17.0848 0.71948 2.87724 16.4303 0.295791
1.25687 17.0654 0.704726 2.76825 17.0292 0.740115 3.03988 16.1292 1.00624 4.13881
16.6578 0.734663 3.94964 0 0 0 16.7142 0.479059 2.11407 16.9811
0.73284 3.28342 16.9713 0.660409 2.65314 20 0 0 16.2308 0.286634
0.165243 10.3716 -0.598188 1.01688 16.3916 0.274219 1.0096 16.6205 0.317561 1.51243
20 0 0 16.8935 0.562849 2.46517 16.2101 0.289613 0.349699 16.6735
0.356994 1.71297 13.4218 0.0108286 0.725048 0 0 0 16.5969 0.276989
1.30682 16.305 0.270372 0.55036 17.05 0.720631 3.45794 9.47422 -2.04699 -0.380271
10.5652 -1.56774 -0.135599 16.7765 0.374953 1.90741 16.669 0.802522 3.90733 16.8855
0.45996 2.25807 17.8711 -1.39422 -2.2959 10.9657 0.15882 1.77491 14.5926 -1.62047
-1.36959 13.7479 -2.12664 -2.01295 16.5648 0.254171 1.09256 14.3367 1.45881 3.80925
16.4374 0.251877 0.724788 8.76892 0.269363 1.79986 17.1786 0.522392 2.7563 0
0 0 17.1651 0.503664 2.65009 17.1594 0.552146 2.89409 17.1889 0.757618
3.5306 16.9141 0.374834 2.06892 16.777 0.286793 1.54717 16.4488 1.08731 4.08011
17.1519 0.579675 3.055 17.1204 0.469029 2.5288 0 0 0 16.7412
0.259397 1.3565 10.0002 -1.03866 0.842053 20 0 0 16.8534 0.302339
1.72958 16.5798 0.234049 0.856245 16.479 0.240799 0.154833 20 0 0
17.0827 0.413026 2.36699 16.4704 0.244342 0.310042 16.7206 0.234867 1.15593 13.9417
0.0506959 0.557807 14.5038 1.6001 3.90953 17.1948 0.803748 3.63827 10.1525 -1.72714
-0.0898308 16.9597 0.30625 1.89145 16.5523 0.228077 0.470507 10.6148 -1.81386 -0.50974
17.731 -1.38313 -2.28419 17.2089 0.594498 3.19896 10.2611 -0.429483 1.70414 17.0744
0.353112 2.19307 16.7172 0.217774 0.951354 14.3022 -1.89747 -2.04778 14.4284 -1.80965
-1.34256 16.5062 1.23107 4.18385 7.90047 -0.286322 1.747 16.8799 0.238012 1.39799
16.6509 0.214225 0.616049 16.9349 0.248584 1.5699 0 0 0 0
0 0 16.8556 0.219699 1.21445 17.0912 0.864868 3.7882 17.2882 0.643849
3.33268 17.0897 0.299739 2.02616 17.292 0.408724 2.63808 17.2946 0.437008 2.76794
17.2765 0.384563 2.52584 9.70586 -1.17012 0.827958 17.0182 0.254365 1.73064 16.7581
0.200512 0.73676 17.3022 0.463541 2.90708 17.2519 0.35369 2.40641 14.7129 1.59812
4.10353 16.8478 0.202279 1.02547 20 0 0 20 0 0
14.3811 0.058049 0.442678 16.6959 0.204367 0.140014 11.4468 -1.67557 -0.572846 14.7665
-1.77529 -2.05266 10.1659 -1.90082 -0.179338 17.8507 -1.4259 -2.31666 16.6889 0.208832
0.273328 17.2333 0.316684 2.26971 17.1219 0.254103 1.86849 17.3369 0.700839 3.44321
16.5464 1.2162 4.37129 17.0237 0.937643 3.94685 17.0202 0.209091 1.42716 16.7612
0.194719 0.40846 16.9814 0.202231 1.26222 16.8684 0.187749 0.833047 10.5588 -0.508549
1.58092 14.7727 -1.83665 -1.42205 17.3444 0.481544 3.02548 17.2297 0.279021 2.1246
17.0838 0.214626 1.58341 16.9687 0.189836 1.08841 16.8391 0.183778 0.533924 17.3311
0.769747 3.5787 9.64902 -1.00079 0.681432 17.1665 0.217273 1.72268 17.3927 0.516468
3.13168 17.241 0.244172 1.98002 12.2588 -1.5748 -0.586068 14.7631 0.0321112 0.364895
15.26 -1.65447 -1.97927 20 0 0 17.409 0.324833 2.54428 10.259
0.33725 1.86014 17.9892 -1.39643 -2.16953 16.9783 0.175389 0.911445 17.4197 0.350016
2.66289 17.3931 0.302462 2.4313 16.9232 0.172928 0.643276 16.9387 1.00631 4.19925
10.7583 -1.54105 -0.602185 17.433 0.374634 2.78164 7.93069 1.11458 1.64875 17.3759
0.277773 2.31394 0 0 0 20 0 0 17.1074 0.179003
1.29839 16.8867 0.175202 0.125016 0 0 0 17.1545 0.184129 1.44968
17.0829 0.17486 1.14036 16.8775 0.180472 0.24137 17.3647 0.251387 2.18998 17.2653
0.213223 1.8404 17.3115 0.834472 3.73877 17.4288 0.557376 3.2297 15.1788 -1.45062
-1.4782 14.9819 1.65297 4.35984 10.7167 0.394017 1.36447 17.0124 0.163158 0.735898
17.2192 0.187989 1.58774 16.9418 0.167939 0.358376 17.4674 0.390644 2.88174 17.0815
0.166077 0.977863 17.3638 0.225309 2.06231 18.0456 -1.23971 -1.90119 15.8789 -1.52826
-1.85667 16.7344 1.24389 4.54412 13.0272 -1.52061 -0.586049 17.0058 0.158991 0.468743
15.1097 -0.0323527 0.298349 17.4435 0.615795 3.35459 9.59531 0.191571 0.0327866 20
0 0 17.3002 0.186874 1.70843 17.27 0.907599 3.94924 9.97537 2.30686
1.37749 17.508 0.414633 2.97915 17.3736 0.200979 1.93486 17.1031 0.153575 0.814451
0 0 0 17.2285 0.160258 1.32809 17.1959 0.155572 1.1824 5.95727
3.4769 0.76905 17.0739 0.150322 0.568007 17.5197 0.258984 2.45517 17.5333 0.279966
2.56343 17.5055 0.240342 2.34803 11.2187 0.127994 -1.56334 17.2778 0.164701 1.46341
17.1839 0.153102 1.03243 15.1376 1.73214 4.54058 0 0 0 15.3846
-0.494292 -1.84705 17.55 0.301599 2.67082 17.4927 0.221372 2.2382 20 0
0 17.4519 0.681634 3.50269 17.0548 0.152325 0.111006 17.5387 0.448978 3.08193
17.3935 0.178978 1.81044 17.0431 0.158001 0.213793 17.3432 0.165088 1.58464 17.4854
0.202188 2.12506 10.2053 2.3191 0.556009 16.7772 1.34946 4.73026 17.1471 0.142795
0.655132 17.1931 0.146288 0.881015 17.2098 0.99092 4.1758 17.5814 0.316773 2.76561
17.1011 0.146525 0.317036 16.4327 -1.43901 -1.59131 17.4858 0.183664 2.01018 13.789
-1.51968 -0.551188 18.2725 -0.962815 -1.44569 17.5557 0.49326 3.19845 17.3051 0.141295
1.21759 15.4453 -0.124056 0.23342 17.155 0.138933 0.415627 17.4598 0.755094 3.67118
0 0 0 17.3409 0.145904 1.349 20 0 0 17.4221
0.159807 1.69089 17.2849 0.136816 1.07826 7.14126 4.60089 1.28148 17.2235 0.135119
0.731207 17.618 0.336237 2.8601 17.4946 0.16622 1.89555 9.17029 3.43075 -1.90899
17.3926 0.147143 1.46904 1.00904 5.27339 0.388017 15.3792 1.7479 4.73255 17.2835
0.135516 0.937101 17.2113 0.13184 0.506177 0 0 0 11.9002 3.48163
-3.90205 17.6232 0.208453 2.37718 17.192 1.06663 4.36248 17.5701 0.543867 3.3276
17.6384 0.224869 2.47725 17.6101 0.193606 2.27633 16.1411 0.703202 -2.04212 16.8651
1.38145 4.88167 17.6473 0.364826 2.96181 17.5997 0.179165 2.17433 20 0
0 17.4583 0.143425 1.57721 17.5115 0.150315 1.78315 17.2046 0.135697 0.0976786
17.6591 0.240931 2.57447 17.4676 0.828656 3.85564 17.3011 0.130226 0.796742 17.1912
0.14081 0.189666 17.2723 0.12595 0.58731 17.5942 0.165099 2.07074 17.4072 0.130585
1.24422 17.3829 0.125952 1.11762 17.6859 0.256114 2.66873 17.2444 0.129654 0.282432
17.4466 0.132221 1.36172 17.6686 0.398699 3.06991 17.3731 0.12156 0.985277 17.591
0.601228 3.46976 17.595 0.151657 1.96623 17.5359 0.136257 1.67404 14.5033 -1.55232
-0.426931 8.74221 5.4183 -1.17823 14.0599 4.88458 -4.25957 16.974 -1.38272 -1.12866
15.7633 -0.229625 0.195393 17.2901 0.12266 0.371839 20 0 0 17.337
0.119773 0.659935 17.5005 0.129482 1.47018 17.1781 1.15568 4.60414 17.7191 0.271849
2.75908 17.3803 0.121302 0.853115 18.575 -0.747748 -0.618696 17.6025 0.139085 1.86201
17.49 0.893785 4.05065 17.6896 0.435678 3.18448 17.3372 0.11649 0.454744 0
0 0 0 0 0 17.7467 0.295626 2.85731 17.6206 0.663747
3.62519 17.7196 0.169827 2.31062 17.5667 0.123936 1.5695 17.4742 0.117861 1.14955
17.7352 0.182163 2.40446 17.7069 0.158586 2.21573 17.5031 0.119743 1.26392 17.4043
0.117528 0.723711 17.4601 0.113386 1.02873 17.617 0.127595 1.75909 17.6976 0.147823
2.12045 17.173 1.19295 -0.973236 20 0 0 15.7181 1.71405 4.95547
5.13842 6.14023 1.33735 17.3398 0.123655 0.084445 17.7557 0.194843 2.49598 17.3883
0.111588 0.53005 0 0 0 17.5461 0.117605 1.37097 17.3256 0.127614
0.167943 17.693 0.137395 2.02452 17.4588 0.109122 0.903356 0.635688 6.30901 2.37832
17.7158 0.477076 3.30736 17.7721 0.321592 2.95705 17.7804 0.207575 2.58629 17.109
1.34054 4.9783 -2.70832 6.19944 1.37652 17.3751 0.116236 0.253221 17.503 0.967273
4.27697 0 0 0 17.6939 0.127526 1.92827 17.6378 0.117265 1.65884
17.6019 0.113239 1.4715 17.6585 0.726283 3.7893 17.4435 0.106791 0.598522 15.3325
4.1194 -2.44726 17.4735 0.110098 0.779996 17.4146 0.108842 0.336273 17.8101 0.220961
2.67418 15.977 -0.311352 0.218659 20 0 0 0 0 0
14.8544 -1.55435 -0.197597 17.7997 0.349102 3.06014 17.7009 0.118437 1.83218 17.5606
0.109146 1.17553 17.5418 0.107019 1.06558 0 0 0 16.903 -1.3668
-0.584804 17.7475 0.523925 3.43889 17.4539 0.103162 0.411902 17.5948 0.107435 1.28071
17.5353 0.103063 0.95001 17.8377 0.239322 2.76645 6.92259 2.68437 -1.88302 17.6631
0.10804 1.56311 15.9394 1.68413 5.08427 18.5968 -0.652463 0.133351 17.5017 0.106978
0.65979 -0.793848 -0.337732 -0.595862 17.81 0.140486 2.25183 17.8252 0.14961 2.34102
17.7979 0.132335 2.16237 17.7137 0.110143 1.73715 17.5121 1.03801 4.50214 17.64
0.104027 1.38077 0 0 0 17.5425 0.0988594 0.832598 17.8438 0.159781
2.42934 17.7892 0.124493 2.07293 20 0 0 17.2454 1.35106 5.12061
17.4971 0.0992562 0.481662 17.7028 0.787207 3.95806 17.831 0.37997 3.16941 17.458
0.107888 0.0720114 17.8662 0.258893 2.85883 17.4469 0.113466 0.148651 17.7851 0.116911
1.98393 17.6969 1.17736 0.215529 17.8674 0.169576 2.51513 17.7871 0.573008 3.5736
0 0 0 17.4912 0.102819 0.228341 17.6929 0.0998533 1.47332 17.7309
0.102603 1.64524 17.6205 0.0999555 1.09207 17.5606 0.0997513 0.71705 17.7863 0.109758
1.8945 0 0 0 17.6411 0.099892 1.19977 17.5442 0.0959872 0.545437
17.6044 0.0985374 0.990584 17.894 0.18086 2.60105 17.5222 0.0968908 0.302295 0
0 0 17.8984 0.279307 2.95298 17.8661 0.414409 3.28342 17.6824 0.0962187
1.2938 15.4605 3.40464 -0.96282 17.6103 0.0945632 0.876682 17.793 0.10308 1.80569
20 0 0 16.2291 1.61501 5.17003 16.1378 -0.328639 0.250109 17.5766
1.07573 4.65916 17.9217 0.194491 2.68749 17.7555 0.842765 4.13033 17.5397 0.0938181
0.383018 17.7515 0.0957423 1.55809 15.0093 -1.48534 0.0487804 17.5936 0.0941844 0.602657
17.7229 0.0937805 1.39172 17.8378 0.622205 3.71172 17.4195 1.32434 5.17463 16.5037
-1.35661 -0.142043 17.6184 0.0899298 0.768935 6.47155 2.69816 -1.28112 17.8041 0.0968715
1.71817 17.933 0.302981 3.05243 17.898 0.117294 2.19857 17.9126 0.123673 2.28317
17.8859 0.112248 2.11422 -1.69304 -0.476355 -0.400898 17.5881 0.0899299 0.444756 17.9529
0.208396 2.77239 18.2917 -0.635597 0.62409 17.9301 0.131435 2.3675 17.8768 0.1068
2.03058 20 0 0 17.908 0.449924 3.39862 17.5727 0.0820804 0.0614891
0 0 0 17.6849 0.0939654 1.10883 17.6702 0.0935122 1.03028 17.558
0.0914354 0.132501 17.951 0.139703 2.45121 17.8727 0.100945 1.94783 17.7199 0.0909354
1.22791 17.7775 0.0896705 1.47307 17.6655 0.0914529 0.90441 17.6469 0.0846746 0.656725
17.8192 0.0910255 1.63299 17.6001 0.0835204 0.20259 17.802 1.07204 1.06366 17.6197
0.0886148 0.509515 17.9752 0.148828 2.53479 17.8741 0.0956008 1.86447 17.9716 0.328545
3.15316 17.7502 0.089341 1.30146 17.8325 0.886122 4.2955 17.9873 0.223694 2.85997
17.6615 1.11854 4.83275 17.6701 0.0888002 0.823891 17.6263 0.0816932 0.253267 17.902
0.670563 3.85442 18.0025 0.158618 2.61673 17.8798 0.0905952 1.78207 17.9588 0.48638
3.51591 15.4434 2.97429 0.150984 17.8345 0.0865931 1.55528 17.8026 0.0854531 1.40706
20 0 0 17.674 0.0849519 0.560958 17.6927 0.0788723 0.693183 16.365
-0.29699 0.253587 18.0234 0.241622 2.95131 17.7487 0.0864724 1.0415 15.2509 -1.42584
0.1702 0 0 0 17.8897 0.0860258 1.70143 18.0165 0.354226 3.25378
6.52037 2.38996 -0.357995 18.0352 0.167975 2.69534 17.9789 0.103651 2.1527 16.3716
-1.31533 0.14832 17.9931 0.106786 2.23214 17.9664 0.0996921 2.07357 17.8001 0.0834181
1.22827 16.5995 1.51864 5.21472 17.7388 0.084543 0.847096 -0.883656 -1.07164 0.159889
18.0102 0.111804 2.31157 17.9572 0.0944407 1.9983 20 0 0 17.6499
0.0709381 0.0573972 17.9122 0.931668 4.47135 17.8456 0.083476 1.47076 17.9789 0.714744
3.99338 17.9794 -0.620616 0.996989 0 0 0 17.6517 0.0793065 0.123457
17.7136 0.0781449 0.614966 18.0305 0.117751 2.3908 17.9401 0.0903342 1.92166 17.715
1.24283 5.12926 17.903 0.0818904 1.62099 18.0642 0.260136 3.04139 18.0184 0.524449
3.63514 18.0694 0.179859 2.77869 17.6804 0.0752314 0.186873 18.0542 0.124143 2.46976
17.9495 0.0852543 1.83936 17.7944 0.930365 1.67039 18.0675 0.381277 3.35598 17.7174
0.075335 0.24113 18.0811 0.130931 2.54822 17.883 0.0787039 1.39608 17.9459 0.0823263
1.76378 17.917 0.0789357 1.55809 17.7706 0.0760737 0.650632 18.1063 0.192888 2.86251
0 0 0 15.4794 2.60426 0.971907 18.111 0.278756 3.13085 20
0 0 18.0629 0.754953 4.12217 16.7832 1.46994 5.17643 17.9874 0.974939
4.6241 16.3979 -0.363976 0.258799 18.112 0.138296 2.62571 17.963 0.0783096 1.68497
18.0872 0.561178 3.74862 15.3151 -1.41583 0.219064 17.7824 0.0763392 0.371991 6.92053
1.90334 0.292785 18.0572 0.0865721 2.1146 18.0704 0.0904455 2.18744 18.0462 0.0825489
2.03853 17.883 1.23241 5.12878 18.1241 0.40974 3.45804 16.1559 -1.28818 0.323143
18.087 0.094575 2.26189 18.0406 0.0813242 1.97681 0.186896 -1.59106 0.458417 18.1486
0.205607 2.9437 18.146 0.146843 2.70495 17.9669 0.0762459 1.61016 0 0
0 18.1069 0.098935 2.33605 17.6697 -0.633817 1.23963 18.1618 0.299372 3.22259
17.8979 0.071575 1.08291 17.8725 0.0739393 0.910249 18.1301 0.103398 2.41029 17.7514
0.758873 2.04947 0 0 0 18.1834 0.155738 2.78337 18.1491 0.790062
4.23847 17.9904 0.073073 1.5374 18.1647 0.596051 3.85569 18.1563 0.108235 2.48484
18.1955 0.219198 3.02572 18.0846 0.994155 4.69377 17.8475 0.0722478 0.476913 18.1879
0.437425 3.55522 17.9553 0.069259 1.24457 16.9319 1.39645 5.10527 17.8813 0.0725281
0.736006 15.5493 2.24527 1.55377 18.2174 0.320444 3.3122 18.1867 0.113617 2.55728
18.005 1.19888 5.07581 20 0 0 16.4053 -0.421113 0.269001 7.47285
1.48907 0.746283 18.2264 0.163852 2.85763 15.3257 -1.42009 0.250936 18.1268 0.0713343
2.07804 18.1322 0.0767474 2.15346 18.109 0.069719 2.01032 18.2451 0.234746 3.10943
20 0 0 18.1561 0.0799332 2.22022 18.1098 0.0717413 1.93812 1.34115
-1.862 0.635864 15.8899 -1.28164 0.424585 18.2217 0.11956 2.63138 17.8498 0.068965
0.11054 0 0 0 18.1676 0.0846321 2.29618 18.2489 0.629674 3.95835
18.2418 0.816514 4.33555 18.2582 0.464695 3.64828 17.3223 -0.67345 1.34773 18.1984
0.0866186 2.36214 18.108 0.0678635 1.78332 18.1635 1.02184 4.77806 18.0368 0.0660008
1.38712 18.279 0.340849 3.3977 18.2718 0.174065 2.93532 17.9235 0.0673549 0.56747
17.8977 0.0684119 0.218249 18.259 0.125779 2.70623 17.6696 0.5904 2.24151 18.2161
0.0918346 2.439 18.2998 0.249929 3.18931 17.991 0.0640311 0.958713 15.7113 1.91796
1.96201 18.2598 0.0921851 2.5013 18.1153 0.0646215 1.64348 18.0273 0.0631542 1.11324
18.2992 0.132257 2.78024 17.9839 0.065637 0.799371 0 0 0 17.9417
0.0656856 0.320263 18.3205 0.185008 3.01166 20 0 0 18.3343 0.66053
4.05099 18.332 0.492979 3.73817 16.4095 -0.481507 0.275168 8.42685 1.13935 1.13926
18.3182 0.848591 4.44101 17.0964 1.30587 5.01193 18.3443 0.361851 3.481 15.3157
-1.43314 0.265524 2.7518 -1.98443 0.810783 18.2946 0.0948083 2.56609 15.6007 -1.28758
0.46613 0 0 0 18.1737 1.11648 4.94786 18.3598 0.264747 3.266
18.3428 0.139642 2.854 16.9463 -0.724322 1.36563 18.0879 0.0613079 1.25453 18.0056
0.0643986 0.643471 18.3303 0.0994263 2.63694 18.3745 0.195159 3.08352 18.1361 0.061416
1.50862 17.9926 0.0626345 0.413989 17.56 0.426532 2.30073 18.4067 0.520444 3.8192
18.4118 0.689852 4.13433 18.4113 0.383723 3.5609 0 0 0 18.3905
0.147029 2.92496 15.9423 1.63882 2.22748 18.3733 0.882214 4.53914 18.3415 0.0745193