# vtk DataFile Version 2.0
sampleSurface
ASCII
DATASET POLYDATA
POINTS 4972 float
4 2.90752e-06 0 4 -0.0312483 0 4 2.85017e-06 0.0312519 4 0.031254
0 4 -0.0312483 0.0312519 4 0.031254 0.0312519 4 -0.0624994 0
4 2.75539e-06 0.0625039 4 0.062505 0 4 -0.0624995 0.0312519 4
-0.0312484 0.0625039 4 0.0312539 0.0625038 4 0.062505 0.0312519 4 -0.0624996
0.0625038 4 0.0625049 0.0625038 4 -0.0937506 0 4 2.62364e-06 0.0937558
4 0.093756 0 4 -0.0937506 0.0312519 4 -0.0312486 0.0937557 4
0.0937559 0.0312518 4 0.0312537 0.0937557 4 -0.0937507 0.0625037 4 -0.0624998
0.0937557 4 0.0937558 0.0625036 4 0.0625048 0.0937556 4 -0.125002 0
4 0.125007 0 4 2.45461e-06 0.125008 4 -0.125002 0.0312518 4
0.125007 0.0312518 4 -0.0312487 0.125008 4 0.0312536 0.125008 4 -0.0937509
0.0937555 4 0.0937557 0.0937554 4 -0.125002 0.0625035 4 -0.0624999 0.125007
4 0.125007 0.0625035 4 0.0625046 0.125007 4 -0.156253 0 4
-0.125002 0.0937553 4 -0.0937511 0.125007 4 0.156257 0 4 0.125006
0.0937552 4 0.0937555 0.125007 4 2.2494e-06 0.156259 4 -0.156253 0.0312517
4 0.156257 0.0312517 4 -0.031249 0.156259 4 0.0312534 0.156259 4
-0.156253 0.0625034 4 0.156257 0.0625033 4 -0.0625002 0.156259 4 0.0625044
0.156259 4 -0.125002 0.125007 4 0.125006 0.125007 4 -0.156253 0.093755
4 -0.0937514 0.156259 4 0.156257 0.0937549 4 0.0937553 0.156259 4
-0.187503 0 4 0.187508 0 4 2.0071e-06 0.187511 4 -0.187503
0.0312516 4 0.187508 0.0312516 4 -0.0312492 0.187511 4 0.0312532 0.187511
4 -0.187504 0.0625032 4 0.187508 0.0625031 4 -0.0625005 0.187511 4
0.0625042 0.187511 4 -0.156253 0.125007 4 -0.125002 0.156259 4 0.156257
0.125007 4 0.125006 0.156259 4 -0.187504 0.0937547 4 0.187507 0.0937546
4 -0.0937517 0.187511 4 0.0937551 0.187511 4 -0.218754 0 4
0.218758 0 4 1.73283e-06 0.218763 4 -0.218754 0.0312515 4 0.218758
0.0312515 4 -0.156253 0.156258 4 0.156257 0.156258 4 -0.0312495 0.218763
4 0.0312529 0.218763 4 -0.187504 0.125006 4 0.187507 0.125006 4
-0.125003 0.18751 4 0.125006 0.18751 4 -0.218754 0.0625029 4 0.218758
0.0625029 4 -0.0625008 0.218763 4 0.0625039 0.218763 4 -0.218754 0.0937544
4 0.218758 0.0937543 4 -0.093752 0.218762 4 0.0937549 0.218762 4
-0.187504 0.156258 4 -0.156254 0.18751 4 0.187507 0.156258 4 0.156257
0.18751 4 -0.250004 0 4 0.250008 0 4 1.43381e-06 0.250015
4 -0.250005 0.0312514 4 -0.218755 0.125006 4 0.250008 0.0312513 4
0.218758 0.125006 4 -0.125003 0.218762 4 0.125006 0.218762 4 -0.0312498
0.250015 4 0.0312526 0.250014 4 -0.250005 0.0625027 4 0.250008 0.0625027
4 -0.0625011 0.250014 4 0.0625037 0.250014 4 -0.187505 0.187509 4
0.187507 0.187509 4 -0.250005 0.093754 4 0.250008 0.093754 4 -0.0937523
0.250014 4 0.0937546 0.250014 4 -0.218755 0.156257 4 0.218757 0.156257
4 -0.156254 0.218761 4 0.156256 0.218761 4 -0.250005 0.125005 4
0.250008 0.125005 4 -0.125003 0.250014 4 0.125005 0.250013 4 -0.281255
0 4 0.281258 0 4 1.11352e-06 0.281266 4 -0.281255 0.0312512
4 0.281258 0.0312512 4 -0.0312501 0.281266 4 0.0312523 0.281266 4
-0.281255 0.0625025 4 0.281258 0.0625024 4 -0.218755 0.187509 4 0.218757
0.187508 4 -0.187505 0.218761 4 0.187507 0.21876 4 -0.0625014 0.281266
4 0.0625033 0.281266 4 0.0815282 0.281265 4 0.0625033 0.286625 4
0.0937543 0.278097 4 -0.250005 0.156257 4 0.250008 0.156256 4 -0.156254
0.250013 4 0.156256 0.250012 4 -0.281255 0.0937537 4 0.281258 0.0937536
4 -0.0937526 0.281266 4 0.0937542 0.281265 4 0.0312521 0.295659 4
0.125005 0.27035 4 8.6292e-07 0.304749 4 0.156256 0.262911 4 -0.281255
0.125005 4 0.281258 0.125005 4 0.125005 0.281264 4 -0.125004 0.281265
4 -0.218756 0.21876 4 0.218757 0.21876 4 -0.312505 0 4
0.312508 0 4 -0.250006 0.187508 4 0.250007 0.187508 4 -0.187505
0.250012 4 0.187506 0.250012 4 7.80021e-07 0.312517 4 -0.0269853 0.312517
4 -0.312505 0.0312511 4 0.312508 0.0312511 4 0.0312519 0.312517 4
-0.0312505 0.312517 4 -0.0312505 0.313916 4 0.187506 0.255809 4 -0.312505
0.0625022 4 0.312508 0.0625022 4 0.062503 0.312517 4 -0.0625017 0.312517
4 -0.281256 0.156256 4 0.281258 0.156256 4 0.156256 0.281264 4
-0.156255 0.281264 4 -0.312505 0.0937533 4 0.312508 0.0937532 4 0.0937539
0.312516 4 -0.093753 0.312517 4 0.214502 0.250011 4 -0.0625018 0.323793
4 0.218757 0.249112 4 -0.250006 0.218759 4 0.250007 0.218759 4
-0.218756 0.250011 4 0.218757 0.250011 4 -0.312505 0.125004 4 0.312508
0.125004 4 0.125005 0.312515 4 -0.125004 0.312516 4 -0.281256 0.187507
4 0.281257 0.187507 4 0.187506 0.281263 4 -0.187506 0.281263 4
-0.343755 0 4 0.343758 0 4 4.42059e-07 0.343769 4 -0.343755
0.031251 4 0.343758 0.031251 4 0.0312516 0.343768 4 -0.0312508 0.343769
4 -0.0937532 0.33293 4 0.250007 0.243101 4 -0.343755 0.062502 4
-0.312506 0.156255 4 0.343758 0.0625019 4 0.312507 0.156255 4 0.156255
0.312515 4 -0.156255 0.312515 4 0.0625026 0.343768 4 -0.062502 0.343768
4 0.250007 0.25001 4 -0.250007 0.25001 4 -0.343755 0.0937529 4
0.343758 0.0937529 4 -0.281256 0.218758 4 0.281257 0.218758 4 0.218756
0.281262 4 -0.218756 0.281262 4 0.0937535 0.343767 4 -0.0937533 0.343768
4 -0.125004 0.341229 4 -0.312506 0.187506 4 0.312507 0.187506 4
0.187506 0.312514 4 -0.187506 0.312515 4 -0.343755 0.125004 4 0.343757
0.125004 4 0.125004 0.343766 4 -0.125004 0.343767 4 0.281257 0.237336
4 -0.135979 0.343767 4 -0.375004 0 4 0.375008 0 4
1.09444e-07 0.375019 4 -0.375005 0.0312509 4 0.375007 0.0312509 4 0.281257
0.250009 4 -0.281257 0.250009 4 0.250006 0.281261 4 -0.250007 0.281261
4 0.0312512 0.375019 4 -0.0312511 0.375019 4 -0.343756 0.156255 4
0.343757 0.156255 4 0.156255 0.343765 4 -0.156256 0.343766 4 -0.375005
0.0625017 4 0.375007 0.0625017 4 0.0625022 0.375019 4 -0.0625023 0.375019
4 -0.312506 0.218758 4 0.312507 0.218757 4 0.218756 0.312513 4
-0.218757 0.312514 4 -0.156256 0.349389 4 -0.375005 0.0937526 4 0.375007
0.0937525 4 0.0937531 0.375018 4 -0.0937536 0.375019 4 0.312507 0.231749
4 -0.343756 0.187506 4 0.343757 0.187506 4 0.187505 0.343764 4
-0.187506 0.343765 4 -0.375005 0.125003 4 0.375007 0.125003 4 0.125004
0.375017 4 -0.125005 0.375018 4 0.281256 0.28126 4 -0.281257 0.28126
4 0.312507 0.250008 4 -0.312507 0.250008 4 0.250006 0.312512 4
-0.250007 0.312512 4 -0.187507 0.356711 4 -0.406254 0 4 -0.375005
0.156254 4 0.406257 0 4 0.375007 0.156254 4 0.156254 0.375016
4 -0.156256 0.375017 4 -2.07883e-07 0.40627 4 -0.406254 0.0312508 4
0.406257 0.0312507 4 -0.343756 0.218757 4 0.343757 0.218756 4 0.218756
0.343763 4 -0.218757 0.343764 4 0.0312509 0.40627 4 -0.0312514 0.40627
4 -0.406254 0.0625015 4 0.406257 0.0625015 4 0.0625019 0.406269 4
-0.0625026 0.40627 4 0.343757 0.226278 4 -0.406254 0.0937522 4 0.406257
0.0937522 4 0.0937527 0.406268 4 -0.0937538 0.406269 4 -0.375006 0.187505
4 0.375007 0.187505 4 0.187505 0.375015 4 -0.187507 0.375016 4
0.312506 0.281259 4 -0.312507 0.281259 4 0.281256 0.31251 4 -0.281258
0.312511 4 -0.218757 0.362686 4 -0.406255 0.125003 4 0.406257 0.125003
4 0.343757 0.250007 4 -0.343757 0.250008 4 0.250006 0.343762 4
-0.250008 0.343763 4 0.125003 0.406267 4 -0.125005 0.406269 4 -0.375006
0.218756 4 0.375006 0.218756 4 0.218755 0.375014 4 -0.218757 0.375015
4 0.375006 0.220884 4 -0.406255 0.156254 4 0.406257 0.156254 4
0.156254 0.406266 4 -0.156256 0.406268 4 -0.437504 0 4 0.437507
0 4 -4.97918e-07 0.43752 4 -0.437504 0.0312506 4 0.437507 0.0312506
4 0.0312506 0.43752 4 -0.0312516 0.43752 4 -0.437504 0.0625013 4
0.437506 0.0625013 4 0.312506 0.312509 4 -0.312508 0.31251 4 0.0625015
0.437519 4 -0.0625028 0.43752 4 0.343756 0.281258 4 -0.343757 0.281258
4 0.281256 0.343761 4 -0.281258 0.343762 4 -0.250008 0.367245 4
0.388542 0.218755 4 -0.437504 0.0937519 4 -0.406255 0.187504 4 0.437506
0.0937519 4 0.406256 0.187504 4 0.187504 0.406265 4 -0.187507 0.406267
4 0.0937523 0.437518 4 -0.093754 0.43752 4 0.375006 0.250006 4
-0.375006 0.250007 4 0.250005 0.375013 4 -0.250008 0.375014 4 -0.437504
0.125003 4 0.437506 0.125003 4 0.125003 0.437517 4 -0.125005 0.437519
4 0.406256 0.215628 4 -0.406256 0.218755 4 0.406256 0.218755 4
0.218755 0.406264 4 -0.218758 0.406266 4 -0.437504 0.156253 4 0.437506
0.156253 4 0.343756 0.312508 4 0.312506 0.34376 4 -0.343757 0.312509
4 -0.312508 0.343761 4 0.156253 0.437516 4 -0.156256 0.437518 4
-0.281258 0.370302 4 -0.468753 0 4 0.468756 0 4 0.375006
0.281257 4 -0.375007 0.281257 4 0.281255 0.375011 4 -0.281258 0.375013
4 -7.52289e-07 0.46877 4 -0.468753 0.0312506 4 0.468756 0.0312505 4
0.0312503 0.46877 4 -0.0312518 0.46877 4 -0.468753 0.0625011 4 0.468756
0.0625011 4 0.0625012 0.468769 4 -0.062503 0.46877 4 -0.437505 0.187504
4 0.437506 0.187504 4 0.187504 0.437515 4 -0.187507 0.437517 4
0.406256 0.250005 4 -0.406256 0.250006 4 0.250005 0.406263 4 -0.250008
0.406265 4 -0.468753 0.0937516 4 0.468756 0.0937516 4 0.0937519 0.468768
4 -0.0937541 0.468769 4 -0.468753 0.125002 4 0.468756 0.125002 4
0.125003 0.468767 4 -0.125005 0.468769 4 0.437506 0.210501 4 -0.312508
0.371724 4 0.343755 0.343759 4 -0.343758 0.34376 4 0.375006 0.312507
4 -0.375007 0.312508 4 0.312505 0.37501 4 -0.312508 0.375012 4
-0.437505 0.218754 4 0.437506 0.218754 4 0.218754 0.437514 4 -0.218758
0.437516 4 -0.468754 0.156253 4 0.468756 0.156253 4 0.406256 0.281256
4 -0.406256 0.281257 4 0.281255 0.406262 4 -0.281258 0.406263 4
0.156253 0.468766 4 -0.156256 0.468768 4 -0.500002 0 4 0.500006
0 4 -9.63934e-07 0.50002 4 -0.500002 0.0312505 4 0.500006 0.0312505
4 0.03125 0.500019 4 -0.031252 0.50002 4 -0.500003 0.0625009 4
0.500006 0.0625009 4 -0.437505 0.250005 4 0.437506 0.250005 4 0.250004
0.437513 4 -0.250008 0.437515 4 0.0625008 0.500019 4 -0.0625031 0.500019
4 -0.468754 0.187503 4 0.468756 0.187503 4 0.187503 0.468765 4
-0.187507 0.468767 4 -0.343758 0.371295 4 -0.500003 0.0937514 4 0.500005
0.0937514 4 0.375005 0.343758 4 0.343755 0.375009 4 -0.375007 0.343759
4 -0.343758 0.37501 4 0.0937516 0.500018 4 -0.0937542 0.500019 4
0.468755 0.205624 4 0.406255 0.312506 4 -0.406257 0.312507 4 0.312505
0.40626 4 -0.312508 0.406262 4 -0.500003 0.125002 4 0.500005 0.125002
4 0.125002 0.500017 4 -0.125005 0.500019 4 -0.468754 0.218754 4
0.468755 0.218754 4 0.218754 0.468764 4 -0.218758 0.468766 4 0.437505
[...]
POINT_DATA 4972
FIELD attributes 1
p 1 4972 float
-7.4591 -7.77056 -8.39324 -8.58628 -8.45139 -9.39624 -8.47025 -9.80211 -10.9445 -8.94143 -9.68423
-10.4013 -11.1712 -9.87338 -11.2542 -9.01958 -10.728 -12.9709 -9.36438 -10.7531 -12.6827
-10.8563 -10.054 -10.8285 -11.964 -11.0945 -9.26679 -13.773 -11.5078 -9.53761 -13.3278
-11.6582 -11.3302 -10.8472 -11.2731 -10.0722 -11.7331 -12.3009 -11.1507 -9.23235 -10.7562
-11.7098 -13.3676 -11.3415 -10.9801 -12.1224 -9.458 -13.0579 -12.3846 -11.7681 -9.90958
-12.2163 -12.5201 -11.3967 -11.5926 -10.8748 -10.5555 -12.531 -11.3252 -11.0889 -8.99288
-12.4785 -12.6941 -9.17696 -12.3385 -13.035 -12.2632 -9.58736 -11.8256 -13.243 -11.8355
-11.4009 -12.4394 -10.8429 -10.8787 -10.2564 -11.1928 -13.3233 -11.4752 -8.63528 -11.9464
-13.2742 -8.7701 -11.8463 -12.2728 -10.7494 -13.6442 -12.8418 -11.1432 -10.8079 -13.2948
-11.1735 -9.15649 -11.4987 -13.9051 -12.428 -9.88432 -11.0706 -14.0585 -12.0595 -12.0447
-13.1765 -10.6754 -10.9525 -8.23146 -12.0785 -13.8772 -8.31727 -10.8229 -11.9921 -10.7666
-14.1122 -11.7209 -14.239 -13.4882 -8.6914 -11.6905 -14.5243 -13.1336 -12.9794 -10.8323
-9.47596 -11.2399 -14.7263 -12.8118 -11.7513 -10.5843 -14.0683 -11.4865 -10.4388 -10.7808
-14.8441 -12.5201 -7.78882 -10.3698 -14.5007 -7.86517 -10.8082 -14.8396 -14.1721 -8.25781
-11.3748 -12.7091 -10.6584 -13.9259 -11.3788 -15.1329 -13.8953 -13.7458 -14.0161 -13.5649
-11.3744 -10.377 -14.8672 -12.3531 -9.05308 -11.3615 -15.3549 -13.6498 -14.4717 -13.1305
-14.9659 -12.7933 -9.98433 -10.8565 -13.4581 -15.4887 -13.6869 -11.1939 -7.26131 -5.91698
-12.3409 -10.2694 -14.7837 -12.3187 -15.1197 -15.4108 -7.41412 -7.77835 -14.8226 -15.4568
-15.4852 -12.5383 -7.87504 -10.6246 -14.5996 -15.7669 -10.8901 -10.1713 -13.4197 -15.522
-8.60013 -11.7511 -14.4396 -15.995 -12.2208 -16.0213 -12.1762 -13.3189 -10.7724 -14.5758
-12.2053 -9.42874 -11.3881 -14.3849 -16.1027 -11.8148 -9.87995 -13.5026 -15.4407 -6.5499
-4.77335 -15.6791 -6.85511 -7.37494 -15.3359 -16.0917 -16.47 -11.614 -7.42928 -10.2582
-11.3968 -10.4478 -14.5079 -16.0764 -15.1185 -16.472 -11.8528 -14.1993 -8.03393 -12.9898
-12.7381 -10.3611 -13.4799 -15.215 -15.0456 -16.7222 -16.7333 -11.0921 -9.98145 -14.7187
-15.9069 -8.72758 -12.5106 -15.148 -16.789 -11.0053 -16.7447 -5.61455 -6.67443 -16.1061
-6.10922 -9.10987 -11.4448 -13.5752 -13.1752 -14.7978 -15.6228 -16.7002 -9.46685 -11.3116
-15.4326 -16.6628 -6.84033 -12.73 -15.3623 -17.2297 -11.9113 -10.323 -14.772 -15.5669
-16.7897 -7.34794 -13.9937 -15.3642 -17.5455 -10.6881 -10.2104 -10.5813 -15.7523 -16.3442
-7.94145 -13.4193 -15.6213 -17.5884 -12.685 -14.1255 -11.2013 -12.6598 -14.4694 -15.0119
-16.5789 -4.67754 -8.61861 -6.61819 -12.1477 -16.0535 -17.3683 -16.3641 -5.33003 -9.05567
-10.9208 -10.603 -15.8839 -15.8195 -15.6901 -17.1809 -6.23286 -12.5559 -15.3399 -17.8924
-10.7228 -6.73699 -13.8167 -15.3722 -18.3078 -9.28762 -11.221 -16.469 -16.9108 -12.1498
-13.1222 -13.8412 -14.1993 -16.0588 -7.30438 -13.5342 -11.1009 -11.5413 -15.6154 -15.0501
-15.7359 -18.3737 -9.87157 -10.9365 -16.7379 -16.2147 -10.9432 -7.94555 -12.4785 -16.2699
-18.1244 -4.03614 -4.90055 -16.471 -4.77908 -7.29059 -15.6403 -17.4694 -5.84441 -10.8956
-13.0347 -13.0882 -15.1994 -18.3377 -11.6508 -11.8555 -14.8972 -14.0176 -15.2026 -11.0179
-6.45569 -8.53014 -12.5873 -11.5741 -16.7834 -17.6052 -15.2299 -18.8442 -11.0344 -10.3162
-16.7055 -15.253 -7.05505 -12.8536 -15.6593 -18.9535 -11.1694 -8.9602 -11.1244 -17.4416
-16.8219 -7.64019 -12.2416 -12.2547 -13.9158 -11.7483 -12.7675 -16.3173 -18.7329 -14.0366
-3.89007 -3.08455 -11.2442 -10.4952 -16.1288 -14.04 -16.4694 -4.67877 -5.37123 -15.6031
-17.5323 -5.87161 -9.00234 -15.1353 -18.4855 -8.09703 -11.558 -16.9841 -18.2374 -10.9484
-9.21793 -18.1199 -15.765 -6.60084 -11.0348 -15.1498 -19.0454 -7.20089 -11.7646 -15.578
-19.1726 -11.2356 -12.6785 -12.9625 -11.4357 -11.6291 -10.3658 -15.0474 -12.6681 -8.3751
-11.1199 -18.1404 -17.4675 -7.67019 -11.6594 -10.9698 -9.2619 -17.9125 -14.4844 -16.2958
-18.9879 -4.33125 -2.86317 -15.834 -5.11815 -4.98189 -15.2595 -16.7011 -6.33518 -8.38729
-8.49497 -10.913 -19.5222 -16.4266 -15.0071 -17.6619 -7.96342 -11.3931 -17.0518 -18.5568
-11.3226 -7.0792 -10.4059 -12.1231 -13.8057 -10.1521 -11.3073 -15.1074 -18.3298 -11.2669
-11.1875 -9.13837 -16.627 -13.0838 -7.5941 -11.3317 -15.5086 -18.5958 -8.09982 -11.1756
-18.2608 -17.8564 -10.8929 -8.45341 -19.4464 -15.1829 -7.8981 -11.5456 -16.1355 -18.578
-10.1337 -12.5966 -10.129 -5.22239 -4.74535 -8.1193 -11.0366 -19.5978 -16.8785 -14.5278
-5.96648 -6.63411 -11.4242 -14.7645 -8.99203 -11.6878 -14.3753 -15.1085 -8.02058 -11.5533
-16.8217 -18.2965 -7.09871 -9.58602 -14.4803 -16.0724 -10.9518 -8.34113 -17.8429 -13.8437
-11.514 -7.74645 -11.26 -14.8011 -16.88 -8.92138 -8.11954 -8.02335 -12.0539 -11.4642
-17.6826 -15.2831 -17.7021 -17.3427 -10.9604 -8.04792 -19.4069 -15.7005 -11.5923 -12.9747
-8.87904 -10.5004 -8.24604 -12.2449 -15.9037 -17.5423 -10.9716 -8.16771 -15.4101 -12.4791
-7.95742 -11.292 -18.438 -16.7832 -6.27334 -7.73346 -13.6469 -8.06555 -6.96231 -8.20775
-9.34943 -12.171 -10.867 -7.9369 -17.7725 -16.5392 -14.4622 -13.7073 -17.393 -13.9852
-7.95967 -11.759 -13.922 -14.8273 -12.092 -8.45786 -12.9681 -14.2594 -15.5972 -7.83273
-11.0904 -18.1348 -15.6533 -8.07954 -11.9341 -11.7013 -9.04685 -17.066 -16.843 -7.84787
-8.67765 -13.3952 -10.9488 -13.1519 -7.86597 -11.2454 -14.7006 -16.04 -7.77997 -10.7338
-7.76404 -15.3275 -13.1907 -8.64654 -13.2716 -15.2908 -16.2115 -7.91822 -11.6068 -17.2139
-15.9218 -10.8716 -7.68712 -16.7377 -14.5293 -8.47628 -12.9184 -15.8549 -15.9808 -7.27709
-10.4351 -13.1848 -7.90345 -11.8397 -13.3146 -13.2951 -7.64059 -12.7824 -8.75145 -13.809
-10.8747 -11.6899 -7.80035 -9.63771 -13.434 -13.8402 -10.5742 -7.53401 -13.0269 -11.9729
-7.62532 -9.09211 -14.6251 -7.73511 -11.2573 -16.6636 -13.5719 -14.8375 -14.3892 -8.23189
-12.4326 -16.0825 -15.3457 -9.16897 -14.6987 -10.6264 -7.54377 -14.5855 -13.4138 -13.7718
-14.6786 -7.63748 -9.01259 -14.1821 -14.117 -14.7007 -7.72485 -7.96861 -11.9103 -15.7719
-14.433 -7.54213 -10.9078 -15.3514 -13.8973 -10.7067 -8.14911 -7.87615 -10.3807 -11.5158
-7.44615 -10.3321 -8.74668 -13.4708 -14.4516 -14.3792 -7.99634 -8.1668 -12.1422 -10.3553
-7.39637 -12.5704 -12.3026 -12.5991 -13.2435 -8.69934 -13.3672 -12.7376 -12.5803 -9.3737
-14.987 -12.7845 -12.847 -8.39053 -7.71415 -11.4169 -14.9844 -13.5239 -8.5206 -9.56815
-15.5017 -12.7913 -13.1466 -8.81002 -8.41768 -12.7421 -10.559 -7.36874 -13.5078 -14.4379
-13.0319 -13.7716 -9.18549 -9.53692 -9.49615 -9.60335 -9.47693 -8.89799 -8.42848 -9.5196
-15.3426 -12.8093 -13.3099 -10.1465 -10.4862 -7.5554 -8.65367 -7.4678 -10.9513 -13.804
-12.878 -9.26779 -8.07335 -14.5803 -12.0771 -10.0709 -7.29501 -11.2189 -13.9925 -10.7455
-12.9083 -13.0246 -13.2753 -10.2059 -7.22344 -11.9299 -12.0851 -8.9434 -13.627 -13.0098
-12.9971 -8.83347 -12.5013 -11.922 -13.2201 -9.25236 -7.75113 -13.5013 -11.4981 -13.2956
-12.0292 -12.3307 -11.877 -9.74752 -14.813 -7.25004 -10.5115 -12.4372 -12.0533 -12.2747
-11.9916 -8.57564 -12.7671 -12.8948 -12.5417 -9.83058 -15.1494 -9.90438 -7.77161 -12.0266
-12.1219 -9.78308 -10.2665 -7.28016 -9.05855 -9.69382 -14.9348 -11.9949 -12.1871 -9.85733
-7.12547 -10.8523 -10.6697 -7.4507 -10.9733 -12.4516 -11.8375 -8.19188 -12.0632 -12.5441
-12.0086 -9.37603 -14.2326 -12.0024 -12.1337 -10.0941 -7.08146 -11.3107 -11.4142 -9.0276
-13.3167 -11.9871 -11.9096 -7.82433 -11.481 -9.51355 -9.69284 -7.35034 -8.03882 -12.0616
-11.4696 -7.18667 -10.4796 -11.5503 -11.3549 -9.17918 -11.6996 -11.2329 -9.49812 -12.3711
-9.52966 -7.09058 -10.0473 -9.17034 -11.29 -11.2125 -12.6558 -9.84776 -13.3151 -11.3085
-11.2641 -8.66627 -12.5115 -11.8312 -11.5651 -9.86627 -13.608 -9.69661 -6.97371 -10.4722
-10.2125 -11.2874 -11.3116 -9.69683 -7.48044 -13.5667 -10.9539 -11.4733 -11.2536 -10.9965
-11.3132 -12.3514 -8.28202 -11.8893 -6.98167 -10.0129 -10.7459 -11.5435 -10.6163 -11.1711
-9.36265 -13.2155 -11.2341 -11.2325 -9.29108 -7.49092 -9.24259 -9.51826 -7.11365 -8.22723
-9.02323 -12.609 -9.33626 -6.92348 -9.8224 -11.1718 -9.06252 -11.0383 -7.17546 -10.4399
-10.8379 -10.5351 -7.89378 -11.3758 -11.1683 -10.7569 -9.237 -10.9467 -10.635 -9.47589
-11.1844 -6.84679 -9.57575 -10.0965 -9.70167 -10.6661 -10.6188 -9.72349 -8.69044 -11.5629
-12.0531 -11.0089 -10.675 -10.6269 -10.7709 -9.71462 -11.7764 -10.654 -10.6267 -11.8795
-7.52473 -10.8827 -10.7264 -10.3422 -6.93496 -9.94299 -10.243 -9.95646 -9.5555 -11.9612
-9.01297 -9.13201 -7.18001 -7.62758 -10.6164 -10.5949 -8.32769 -11.6146 -10.7771 -10.4614
-9.03643 -6.92027 -9.35317 -8.27576 -9.26566 -12.0016 -10.573 -10.4987 -9.18818 -6.77701
-9.57662 -8.86992 -7.19233 -10.3734 -10.2658 -9.91214 -8.97778 -7.93825 -11.8104 -11.2041
-10.4879 -10.4949 -10.3276 -10.1184 -6.77097 -9.48173 -9.73866 -9.28006 -9.10328 -11.0921
-10.1046 -9.27374 -10.9625 -10.1278 -10.0823 -8.682 -11.5791 -8.84822 -7.25381 -10.3526
-10.1086 -9.45298 -10.765 -8.80657 -8.99915 -6.95028 -7.70584 -10.1278 -10.0645 -11.3972
-7.555 -10.7553 -10.1444 -9.75476 -9.44698 -6.92121 -10.7611 -9.86449 -9.81758 -10.1048
-9.42332 -10.0326 -8.87262 -6.75551 -9.16979 -8.22323 -9.32295 -10.9894 -10.0685 -9.97969
-8.3426 -11.3254 -10.1623 -9.85325 -6.67673 -9.07578 -9.31363 -8.64178 -11.2484 -9.11738
-11.2276 -10.0166 -9.88114 -7.20691 -10.2651 -9.78489 -9.3776 -7.96306 -6.72939 -10.9996
-9.39212 -9.41211 -9.93115 -8.89804 -9.56935 -8.91822 -11.3058 -9.93364 -9.72953 -8.63425
-8.71737 -6.98845 -7.30858 -8.63876 -6.76487 -8.84949 -7.71939 -8.88712 -8.67181 -11.3875
-11.251 -8.74848 -6.63522 -8.96454 -9.80643 -8.11029 -9.61745 -9.5413 -8.99742 -11.2214
-9.6378 -9.59077 -6.91815 -9.76431 -9.43072 -8.97657 -9.12822 -7.57272 -10.9231 -10.5884
-9.65928 -9.63957 -9.55792 -9.2612 -9.14471 -10.7959 -9.62106 -9.50938 -6.61105 -8.97922
-9.05384 -8.39797 -8.35005 -11.0698 -9.64295 -9.32311 -9.07326 -10.9073 -9.58372 -9.44846
-10.837 -8.49808 -7.01965 -8.9678 -7.21291 -11.0823 -10.1187 -8.46853 -8.58389 -6.78608
-9.36837 -7.33419 -9.5279 -9.35258 -8.93866 -6.7047 -9.29334 -9.09828 -8.55739 -8.50889
-6.62638 -8.6784 -7.6706 -7.97763 -10.7786 -9.44995 -9.0815 -8.86556 -11.1452 -9.44838
-9.21557 -10.6537 -6.54952 -8.6483 -8.75059 -7.95367 -6.91518 -9.63715 -9.07679 -8.59899
-8.66599 -11.0574 -9.33498 -9.05173 -8.66205 -7.58448 -11.4315 -10.3938 -9.22852 -9.17111
-8.81702 -8.72817 -11.4175 -9.1889 -9.14182 -8.83407 -6.56685 -11.3185 -8.88652 -8.79654
-9.19265 -9.1002 -8.14866 -8.88264 -11.1871 -8.33467 -8.37262 -6.80837 -7.04172 -9.17621
-9.04507 -8.35256 -10.8443 -8.33928 -6.63194 -8.43507 -9.19205 -7.31832 -8.86287 -8.87317
-11.155 -9.13924 -8.97974 -7.21606 -9.94674 -6.52451 -8.40697 -8.49751 -8.99056 -7.57385
-8.54222 -6.68928 -9.18403 -8.79995 -8.24656 -8.87179 -11.1546 -9.08565 -8.88734 -10.2789
-7.97915 -10.5519 -9.028 -8.6548 -6.49014 -8.56456 -8.53594 -7.77531 -8.85061 -11.0726
-9.0118 -8.76393 -6.91254 -9.49143 -8.75051 -8.2552 -8.2067 -6.82491 -8.20505 -6.64542
-8.23368 -7.04148 -8.67289 -7.58369 -6.53844 -10.8884 -10.1886 -8.79709 -8.54624 -8.84321
-8.91291 -7.9065 -8.6205 -8.42734 -8.45243 -11.6609 -8.76052 -8.49278 -11.6916 -8.23693
-6.51734 -8.2753 -7.2585 -8.777 -8.73077 -8.60004 -11.6382 -8.78182 -8.68762 -9.92776
-8.69244 -11.4757 -8.7677 -8.62964 -8.35158 -10.6272 -6.45158 -8.32897 -8.31173 -8.79108
-7.45029 -8.45655 -8.75057 -6.68116 -11.3366 -9.07097 -8.51993 -8.73355 -8.56144 -7.95707
-7.21585 -9.77046 -8.64675 -8.19031 -8.84164 -6.44948 -11.1856 -8.496 -8.3196 -8.68471
-7.59316 -8.47487 -7.97341 -10.3279 -8.65084 -8.27558 -9.72156 -8.07133 -8.06676 -6.65699
-6.82366 -8.86525 -10.9732 -8.09949 -6.5216 -8.08616 -7.0027 -8.61831 -8.36348 -6.91712
-9.34864 -8.44825 -7.94642 -6.52294 -8.71979 -8.30345 -7.67083 -6.43344 -8.16163 -8.10861
-7.16991 -7.57997 -9.98573 -8.49493 -8.07978 -8.68079 -10.7138 -8.53186 -8.23529 -8.21462
-11.9316 -8.38297 -8.25108 -6.39795 -12.0001 -8.27619 -8.11783 -8.39885 -8.35338 -7.31172
-8.38723 -11.9658 -8.40238 -8.31214 -8.54008 -8.34488 -11.7497 -10.4304 -8.42768 -8.39127
-8.25594 -8.09131 -6.69174 -8.9666 -8.25161 -7.69439 -7.22417 -9.60207 -8.3297 -7.87596
-8.66983 -11.4954 -7.93068 -6.64994 -8.36216 -8.18784 -6.42582 -8.45029 -8.10239 -7.40631
-7.96139 -6.52424 -7.92571 -6.79191 -6.42857 -8.02093 -7.93286 -6.93379 -8.82565 -11.195
-8.31714 -8.10675 -7.95951 -10.13 -8.30751 -7.93346 -9.22979 -6.36954 -8.11079 -7.93296
-7.06254 -8.8565 -6.9411 -10.8762 -9.22426 -8.16143 -8.25776 -8.00656 -7.66655 -6.53385
-8.65684 -8.06375 -7.44909 -9.19834 -7.57445 -9.80105 -8.17473 -7.76455 -6.36424 -8.24622
-7.92016 -7.16089 -8.64818 -10.5673 -8.18266 -7.89103 -7.89687 -12.3058 -7.81892 -7.79174
-6.50813 -6.61719 -8.03274 -7.94208 -12.3645 -8.04859 -8.00363 -8.12713 -6.72914 -12.2778
-8.88494 -6.41873 -7.87408 -7.78137 -6.73418 -7.99221 -8.05128 -7.9633 -7.45184 -8.30204
-10.2735 -8.09221 -7.76351 -8.362 -7.24275 -6.42961 -11.9497 -9.45189 -8.42118 -7.88698
-8.04092 -8.03436 -7.90967 -7.22117 -7.58876 -6.35447 -7.9581 -7.76925 -6.84725 -8.56954
-11.5618 -8.01631 -7.84531 -7.91344 -6.32296 -9.97699 -8.07053 -7.75422 -7.98981 -6.94027
-7.62567 -8.76159 -11.1603 -7.97734 -7.77136 -6.57292 -8.60662 -7.82757 -7.24022 -6.97661
-9.11708 -7.88879 -7.40766 -8.78126 -10.7883 -7.92531 -7.68185 -8.84234 -6.35604 -8.22205
-7.72328 -7.00665 -7.67962 -6.47151 -7.5411 -9.66169 -7.72555 -6.39056 -7.65105 -6.56527
-7.877 -7.47833 -8.55737 -10.4569 -6.33088 -7.79999 -7.62741 -7.86073 -6.6608 -7.57759
-6.76663 -8.81751 -7.74293 -7.22263 -7.49489 -6.29092 -12.3689 -7.89764 -7.60321 -7.70658
-6.74629 -7.56143 -6.45178 -12.3768 -8.38674 -7.67208 -7.72276 -7.67857 -7.04058 -7.81219
-12.229 -7.72653 -7.63935 -8.21043 -7.23908 -10.1513 -9.33918 -7.78275 -7.75611 -7.46432
-7.32425 -8.13199 -11.8593 -7.71825 -7.58868 -6.29576 -8.02779 -7.57292 -6.81067 -8.65544
-8.40535 -11.4355 -7.69668 -7.53005 -7.82695 -9.85899 -7.69466 -7.34283 -8.61184 -6.59808
-11.045 -8.56237 -7.58397 -7.53991 -6.34852 -6.4214 -7.66257 -7.59865 -7.46303 -7.03934
-6.98947 -9.02938 -7.63002 -7.16579 -6.29152 -7.64625 -7.50281 -6.50067 -6.35502 -8.18314
-7.5262 -6.85223 -8.61177 -10.6869 -7.61738 -7.3824 -6.25177 -7.732 -7.46938 -6.57345
-8.54816 -7.47108 -9.56545 -7.59782 -7.21345 -8.38694 -6.23986 -10.3505 -7.83995 -7.43335
-7.56159 -6.63512 -7.289 -6.77801 -8.75154 -7.50362 -7.00474 -6.45681 -8.34085 -7.46067
-6.86402 -7.05366 -11.8701 -7.40264 -7.13313 -7.19532 -11.8511 -9.26109 -7.41817 -7.49309
-7.37611 -7.07844 -8.04835 -10.0386 -7.49467 -7.18824 -7.43167 -6.27297 -11.7314 -7.98032
-7.38913 -7.42267 -7.3394 -6.67729 -7.44073 -6.29811 -7.81095 -11.4774 -6.24446 -7.49874
-7.39253 -6.36092 -7.41645 -7.29309 -6.20279 -7.5753 -7.35008 -6.42301 -8.11374 -11.1556
-7.39807 -7.23976 -6.59657 -8.50748 -7.37859 -6.84481 -7.68712 -9.75334 -7.41794 -7.08067
-6.96309 -6.34342 -8.96106 -8.13008 -7.33091 -7.38429 -6.69727 -6.93891 -8.30827 -6.18388
-10.8333 -7.66965 -7.30818 -7.36783 -6.47615 -7.17816 -8.28937 -10.518 -7.3286 -7.10508
-7.37048 -6.1986 -9.47881 -7.78799 -7.26144 -7.33469 -6.51736 -6.9662 -8.28927 -6.44449
-8.28141 -7.25655 -6.68995 -8.08806 -6.75862 -10.2042 -8.6883 -7.2812 -7.27422 -7.02223
-6.79739 -6.19264 -7.35023 -7.29247 -6.23897 -8.22652 -6.15164 -7.42148 -7.24289 -6.28854
-6.24912 -7.92689 -7.2072 -6.54035 -7.1229 -9.18972 -7.24483 -6.84729 -6.90451 -11.3761
-7.12053 -6.94068 -7.79064 -6.12747 -11.3411 -9.90649 -7.5082 -7.19581 -7.13591 -7.22432
-6.33488 -7.0947 -6.9328 -7.15615 -11.239 -7.14113 -7.06078 -7.46571 -11.0786 -7.1356
-7.01937 -6.57748 -6.13238 -8.44175 -7.61138 -7.14625 -7.16439 -6.37094 -6.65639 -7.70635
-6.32538 -10.8585 -8.06602 -7.12031 -7.13982 -6.97043 -6.54138 -7.4896 -9.63483 -7.15812
-6.8372 -6.90881 -8.89537 -7.15012 -6.72437 -7.86574 -10.5947 -7.09477 -6.91441 -6.1639
-7.73285 -7.09216 -6.39448 -7.20196 -6.13363 -7.85215 -10.3161 -6.0973 -7.26872 -7.14575
-6.16908 -7.06101 -6.84925 -7.23954 -9.36702 -7.08592 -6.73564 -6.42389 -6.07247 -8.21253
-7.34904 -7.09288 -6.2065 -7.05582 -6.51847 -8.03125 -6.71599 -8.62339 -7.0539 -6.5989
-7.69702 -6.22488 -10.0366 -7.86129 -7.02804 -7.02048 -6.77532 -6.40026 -6.07021 -7.44328
-7.04054 -6.23857 -7.02699 -9.08803 -7.00844 -6.63014 -7.48438 -9.75962 -6.97145 -6.69552
-6.97546 -10.974 -6.85982 -6.99227 -6.08959 -10.9555 -7.55077 -6.98544 -6.87361 -6.8352
-6.2595 -7.11379 -10.8776 -6.87919 -6.80324 -6.54172 -8.37551 -6.95633 -6.47356 -6.30223
-7.99557 -6.95085 -6.38552 -7.28241 -10.7519 -6.87556 -6.7662 -7.3981 -7.27605 -6.8332
-10.5862 -9.4966 -8.80736 -6.03624 -7.1192 -7.0566 -6.06483 -6.86359 -6.91475 -6.92583
-6.7208 -6.61033 -6.52093 -6.13189 -7.66551 -6.9223 -6.26743 -6.01315 -7.194 -6.99852
-6.09101 -7.50532 -10.3713 -6.84157 -6.66962 -6.00863 -7.27947 -6.94187 -6.11707 -7.09035
-9.22958 -6.85177 -6.52001 -7.50492 -6.39119 -10.1255 -8.14348 -6.81176 -6.85892 -6.61126
-6.35068 -7.80725 -6.02028 -7.37778 -6.88501 -6.13578 -6.65663 -6.19569 -8.54435 -7.78936
-6.84984 -6.84077 -6.25835 -6.40932 -7.7848 -7.38083 -9.87048 -6.77711 -6.54496 -6.91291
-6.04778 -8.95977 -7.48179 -6.82254 -6.78378 -6.14318 -6.4258 -5.96742 -6.9735 -7.23204
-9.60427 -6.73491 -6.47392 -5.94784 -7.04379 -6.91121 -5.98856 -6.9352 -6.26753 -10.6246
-7.92402 -6.61707 -6.76462 -6.23151 -6.9571 -6.49311 -10.6123 -8.29982 -6.62936 -6.59398
-6.75456 -6.29783 -7.03485 -5.94316 -10.5583 -7.12347 -6.8505 -6.00552 -6.63474 -6.5646
-7.12153 -6.09457 -10.4727 -7.59358 -6.63279 -6.75262 -6.53058 -6.13752 -6.74224 -8.6961
-6.71156 -6.32814 -7.08923 -5.94981 -9.34143 -7.21089 -6.79146 -6.0211 -6.68578 -6.39703
-7.17356 -10.3433 -6.62386 -6.48826 -7.24174 -10.1544 -6.60576 -6.44092 -5.96985 -7.30763
-6.7283 -6.02747 -6.3469 -8.06812 -6.66809 -6.18786 -6.94245 -6.15753 -9.07794 -7.71718
-6.67343 -6.63109 -6.11642 -6.3157 -7.24692 -9.92219 -6.57962 -6.38786 -6.58286 -8.44526
-6.63645 -6.22861 -6.28739 -6.30693 -6.26874 -5.87822 -6.89761 -5.8925 -6.82891 -6.0037
-7.40926 -6.66008 -6.02301 -6.31693 -6.24965 -7.54553 -7.15974 -5.87262 -9.6834 -6.97267
-6.76557 -5.90511 -6.5493 -6.32877 -6.31765 -6.3151 -6.79452 -8.82176 -6.57176 -6.2316
-5.87909 -7.05252 -6.70363 -5.9144 -6.19067 -6.22403 -7.84875 -6.58333 -6.08044 -7.04507
-6.43097 -9.42997 -8.20677 -6.51278 -6.5603 -6.26539 -6.12896 -6.29315 -6.05071 -7.5224
-6.58553 -6.00592 -6.9069 -5.8928 -10.3752 -7.14003 -6.64002 -6.38974 -5.91926 -6.91545
-10.3675 -6.40142 -6.36895 -6.93911 -10.3287 -6.40727 -6.34215 -6.6461 -8.57248 -6.50862
-6.14471 -6.9722 -10.2558 -6.40659 -6.30979 -6.11533 -6.27114 -6.92797 -9.17172 -6.46993
-6.19567 -7.00319 -5.91916 -10.1255 -7.23461 -6.57229 -6.39915 -6.27098 -5.91505 -6.25629
-7.40445 -6.29032 -7.97988 -6.48355 -6.02984 -7.04038 -6.11315 -9.93916 -7.64215 -5.80349
-6.75302 -6.3849 -6.50056 -6.22713 -5.97579 -6.24289 -5.80021 -6.82491 -5.81193 -6.68508
-6.80322 -8.91614 -6.42216 -6.12186 -6.50099 -5.80502 -8.33032 -6.89961 -6.62071 -5.81694
-6.44222 -6.05517 -7.02986 -5.95477 -9.70957 -7.3376 -6.50027 -6.36343 -6.17802 -5.90061
-6.02428 -5.81677 -6.98046 -6.55638 -5.81812 -6.20369 -6.97029 -9.47686 -6.33676 -6.12488
-7.31919 -6.67703 -8.67207 -6.3701 -6.04673 -6.17173 -7.76466 -6.40712 -5.93232 -5.83686
-7.06794 -6.48922 -5.81339 -6.3621 -6.00468 -7.44792 -8.09778 -6.42004 -6.37437 -5.8743
-5.96475 -6.16919 -6.883 -9.23721 -6.30469 -6.06747 -5.91917 -6.87913 -10.1619 -6.17614
-6.88432 -10.1513 -6.18762 -6.15724 -6.14843 -6.89034 -6.54594 -5.86696 -10.1068 -7.16233
-8.43527 -6.19393 -6.41805 -6.13216 -6.31459 -5.80021 -5.96907 -5.72392 -5.72468 -6.67965
-6.60989 -6.89959 -5.72898 -10.0333 -6.75107 -6.54184 -5.72595 -6.19428 -6.10155 -6.78583
-8.99369 -6.2672 -6.00483 -6.13098 -6.90569 -9.88993 -6.18843 -6.06658 -6.06234 -5.73923
-7.56029 -6.82673 -6.47644 -5.72429 -6.33201 -5.83699 -6.23041 -7.87646 -6.30591 -5.87522
-6.9131 -9.70245 -6.1768 -6.02605 -5.90493 -7.26345 -6.34145 -5.77696 -6.67911 -6.41356
-5.75652 -6.90909 -8.20267 -8.75098 -6.40971 -5.71721 -6.22547 -6.25572 -5.93877 -5.88788
-6.0857 -6.8797 -9.48508 -6.15918 -5.98067 -5.80251 -5.78027 -6.99573 -6.34015 -5.70462